 Entering Gaussian System, Link 0=/apps/software/g16/g16
 Initial command:
 /apps/software/g16/l1.exe "/scratch/Gau-24784.inp" -scrdir="/scratch/"
 Entering Link 1 = /apps/software/g16/l1.exe PID=     24785.
  
 Copyright (c) 1988,1990,1992,1993,1995,1998,2003,2009,2016,
            Gaussian, Inc.  All Rights Reserved.
  
 This is part of the Gaussian(R) 16 program.  It is based on
 the Gaussian(R) 09 system (copyright 2009, Gaussian, Inc.),
 the Gaussian(R) 03 system (copyright 2003, Gaussian, Inc.),
 the Gaussian(R) 98 system (copyright 1998, Gaussian, Inc.),
 the Gaussian(R) 94 system (copyright 1995, Gaussian, Inc.),
 the Gaussian 92(TM) system (copyright 1992, Gaussian, Inc.),
 the Gaussian 90(TM) system (copyright 1990, Gaussian, Inc.),
 the Gaussian 88(TM) system (copyright 1988, Gaussian, Inc.),
 the Gaussian 86(TM) system (copyright 1986, Carnegie Mellon
 University), and the Gaussian 82(TM) system (copyright 1983,
 Carnegie Mellon University). Gaussian is a federally registered
 trademark of Gaussian, Inc.
  
 This software contains proprietary and confidential information,
 including trade secrets, belonging to Gaussian, Inc.
  
 This software is provided under written license and may be
 used, copied, transmitted, or stored only in accord with that
 written license.
  
 The following legend is applicable only to US Government
 contracts under FAR:
  
                    RESTRICTED RIGHTS LEGEND
  
 Use, reproduction and disclosure by the US Government is
 subject to restrictions as set forth in subparagraphs (a)
 and (c) of the Commercial Computer Software - Restricted
 Rights clause in FAR 52.227-19.
  
 Gaussian, Inc.
 340 Quinnipiac St., Bldg. 40, Wallingford CT 06492
  
  
 ---------------------------------------------------------------
 Warning -- This program may not be used in any manner that
 competes with the business of Gaussian, Inc. or will provide
 assistance to any competitor of Gaussian, Inc.  The licensee
 of this program is prohibited from giving any competitor of
 Gaussian, Inc. access to this program.  By using this program,
 the user acknowledges that Gaussian, Inc. is engaged in the
 business of creating and licensing software in the field of
 computational chemistry and represents and warrants to the
 licensee that it is not a competitor of Gaussian, Inc. and that
 it will not use this program in any manner prohibited above.
 ---------------------------------------------------------------
  

 Cite this work as:
 Gaussian 16, Revision A.03,
 M. J. Frisch, G. W. Trucks, H. B. Schlegel, G. E. Scuseria, 
 M. A. Robb, J. R. Cheeseman, G. Scalmani, V. Barone, 
 G. A. Petersson, H. Nakatsuji, X. Li, M. Caricato, A. V. Marenich, 
 J. Bloino, B. G. Janesko, R. Gomperts, B. Mennucci, H. P. Hratchian, 
 J. V. Ortiz, A. F. Izmaylov, J. L. Sonnenberg, D. Williams-Young, 
 F. Ding, F. Lipparini, F. Egidi, J. Goings, B. Peng, A. Petrone, 
 T. Henderson, D. Ranasinghe, V. G. Zakrzewski, J. Gao, N. Rega, 
 G. Zheng, W. Liang, M. Hada, M. Ehara, K. Toyota, R. Fukuda, 
 J. Hasegawa, M. Ishida, T. Nakajima, Y. Honda, O. Kitao, H. Nakai, 
 T. Vreven, K. Throssell, J. A. Montgomery, Jr., J. E. Peralta, 
 F. Ogliaro, M. J. Bearpark, J. J. Heyd, E. N. Brothers, K. N. Kudin, 
 V. N. Staroverov, T. A. Keith, R. Kobayashi, J. Normand, 
 K. Raghavachari, A. P. Rendell, J. C. Burant, S. S. Iyengar, 
 J. Tomasi, M. Cossi, J. M. Millam, M. Klene, C. Adamo, R. Cammi, 
 J. W. Ochterski, R. L. Martin, K. Morokuma, O. Farkas, 
 J. B. Foresman, and D. J. Fox, Gaussian, Inc., Wallingford CT, 2016.
 
 ******************************************
 Gaussian 16:  ES64L-G16RevA.03 25-Dec-2016
                16-Jun-2022 
 ******************************************
 %nproc=8
 Will use up to    8 processors via shared memory.
 %chk=002.chk
 ----------------------------------------
 #p TD=(Triplet,Nstates=10) B3LYP/def2SVP
 ----------------------------------------
 1/38=1,172=1/1;
 2/12=2,17=6,18=5,40=1/2;
 3/5=43,7=101,11=9,25=1,30=1,74=-5/1,2,3,8;
 4//1;
 5/5=2,38=5/2;
 8/6=1,10=1,108=10/1;
 9/41=10,42=1,48=3,70=2/14;
 6/7=2,8=2,9=2,10=2/1;
 99/5=1,9=1/99;
 Leave Link    1 at Thu Jun 16 14:44:23 2022, MaxMem=           0 cpu:               0.6 elap:               0.1
 (Enter /apps/software/g16/l101.exe)
 -------------------
 Benzene_dimer TDDFT
 -------------------
 Symbolic Z-matrix:
 Charge =  0 Multiplicity = 1
 C                     0.20656   1.12402  -1.69783 
 H                     0.85684   1.99757  -1.61867 
 C                     0.75321  -0.15937  -1.63164 
 H                     1.82816  -0.28845  -1.494 
 C                    -0.07989  -1.27757  -1.71609 
 H                     0.34731  -2.28063  -1.65246 
 C                    -1.4596   -1.11316  -1.86569 
 H                    -2.11081  -1.98815  -1.92684 
 C                    -2.00692   0.17179  -1.9304 
 H                    -3.08583   0.30134  -2.04322 
 C                    -1.17309   1.29059  -1.84749 
 H                    -1.60063   2.29486  -1.89297 
 C                     1.45953   1.11318   1.86617 
 H                     2.11068   1.98818   1.92771 
 C                     2.00684  -0.17176   1.93115 
 H                     3.08569  -0.30129   2.04456 
 C                     1.17308  -1.29058   1.84777 
 H                     1.60062  -2.29484   1.89347 
 C                    -0.20649  -1.12403   1.69736 
 H                    -0.85672  -1.99759   1.61781 
 C                    -0.75313   0.15934   1.63089 
 H                    -1.828     0.2884    1.49264 
 C                     0.0799    1.27756   1.71582 
 H                    -0.3473    2.2806    1.65196 
 
 ITRead=  0  0  0  0  0  0  0  0  0  0  0  0  0  0  0  0  0  0  0  0
 ITRead=  0  0  0  0
 MicOpt= -1 -1 -1 -1 -1 -1 -1 -1 -1 -1 -1 -1 -1 -1 -1 -1 -1 -1 -1 -1
 MicOpt= -1 -1 -1 -1
 NAtoms=     24 NQM=       24 NQMF=       0 NMMI=      0 NMMIF=      0
                NMic=       0 NMicF=      0.
                    Isotopes and Nuclear Properties:
 (Nuclear quadrupole moments (NQMom) in fm**2, nuclear magnetic moments (NMagM)
  in nuclear magnetons)

  Atom         1           2           3           4           5           6           7           8           9          10
 IAtWgt=          12           1          12           1          12           1          12           1          12           1
 AtmWgt=  12.0000000   1.0078250  12.0000000   1.0078250  12.0000000   1.0078250  12.0000000   1.0078250  12.0000000   1.0078250
 NucSpn=           0           1           0           1           0           1           0           1           0           1
 AtZEff=  -0.0000000  -0.0000000  -0.0000000  -0.0000000  -0.0000000  -0.0000000  -0.0000000  -0.0000000  -0.0000000  -0.0000000
 NQMom=    0.0000000   0.0000000   0.0000000   0.0000000   0.0000000   0.0000000   0.0000000   0.0000000   0.0000000   0.0000000
 NMagM=    0.0000000   2.7928460   0.0000000   2.7928460   0.0000000   2.7928460   0.0000000   2.7928460   0.0000000   2.7928460
 AtZNuc=   6.0000000   1.0000000   6.0000000   1.0000000   6.0000000   1.0000000   6.0000000   1.0000000   6.0000000   1.0000000

  Atom        11          12          13          14          15          16          17          18          19          20
 IAtWgt=          12           1          12           1          12           1          12           1          12           1
 AtmWgt=  12.0000000   1.0078250  12.0000000   1.0078250  12.0000000   1.0078250  12.0000000   1.0078250  12.0000000   1.0078250
 NucSpn=           0           1           0           1           0           1           0           1           0           1
 AtZEff=  -0.0000000  -0.0000000  -0.0000000  -0.0000000  -0.0000000  -0.0000000  -0.0000000  -0.0000000  -0.0000000  -0.0000000
 NQMom=    0.0000000   0.0000000   0.0000000   0.0000000   0.0000000   0.0000000   0.0000000   0.0000000   0.0000000   0.0000000
 NMagM=    0.0000000   2.7928460   0.0000000   2.7928460   0.0000000   2.7928460   0.0000000   2.7928460   0.0000000   2.7928460
 AtZNuc=   6.0000000   1.0000000   6.0000000   1.0000000   6.0000000   1.0000000   6.0000000   1.0000000   6.0000000   1.0000000

  Atom        21          22          23          24
 IAtWgt=          12           1          12           1
 AtmWgt=  12.0000000   1.0078250  12.0000000   1.0078250
 NucSpn=           0           1           0           1
 AtZEff=  -0.0000000  -0.0000000  -0.0000000  -0.0000000
 NQMom=    0.0000000   0.0000000   0.0000000   0.0000000
 NMagM=    0.0000000   2.7928460   0.0000000   2.7928460
 AtZNuc=   6.0000000   1.0000000   6.0000000   1.0000000
 Leave Link  101 at Thu Jun 16 14:44:24 2022, MaxMem=   104857600 cpu:               2.0 elap:               0.4
 (Enter /apps/software/g16/l202.exe)
                          Input orientation:                          
 ---------------------------------------------------------------------
 Center     Atomic      Atomic             Coordinates (Angstroms)
 Number     Number       Type             X           Y           Z
 ---------------------------------------------------------------------
      1          6           0        0.206559    1.124019   -1.697833
      2          1           0        0.856837    1.997572   -1.618668
      3          6           0        0.753214   -0.159371   -1.631637
      4          1           0        1.828161   -0.288450   -1.494000
      5          6           0       -0.079891   -1.277566   -1.716091
      6          1           0        0.347307   -2.280626   -1.652456
      7          6           0       -1.459602   -1.113160   -1.865689
      8          1           0       -2.110811   -1.988149   -1.926845
      9          6           0       -2.006920    0.171787   -1.930405
     10          1           0       -3.085827    0.301336   -2.043220
     11          6           0       -1.173091    1.290589   -1.847494
     12          1           0       -1.600632    2.294859   -1.892973
     13          6           0        1.459529    1.113177    1.866168
     14          1           0        2.110681    1.988182    1.927707
     15          6           0        2.006839   -0.171760    1.931154
     16          1           0        3.085688   -0.301291    2.044559
     17          6           0        1.173082   -1.290581    1.847770
     18          1           0        1.600618   -2.294843    1.893472
     19          6           0       -0.206488   -1.124035    1.697358
     20          1           0       -0.856716   -1.997590    1.617805
     21          6           0       -0.753134    0.159343    1.630895
     22          1           0       -1.828002    0.288398    1.492636
     23          6           0        0.079897    1.277556    1.715823
     24          1           0       -0.347296    2.280604    1.651965
 ---------------------------------------------------------------------
                    Distance matrix (angstroms):
                    1          2          3          4          5
     1  C    0.000000
     2  H    1.091890   0.000000
     3  C    1.396532   2.159469   0.000000
     4  H    2.160141   2.486948   1.091383   0.000000
     5  C    2.418676   3.407856   1.396981   2.160633   0.000000
     6  H    3.407855   4.308566   2.159842   2.487328   1.092097
     7  C    2.794501   3.886330   2.420960   3.409939   1.397501
     8  H    3.886932   4.978743   3.410897   4.311825   2.161939
     9  C    2.420810   3.410538   2.795937   3.887172   2.420742
    10  H    3.411145   4.313011   3.888430   4.979635   3.411099
    11  C    1.397705   2.161665   2.420667   3.409668   2.794240
    12  H    2.162149   2.490538   3.410591   4.311530   3.886665
    13  C    3.777851   3.645474   3.788523   3.659395   4.573625
    14  H    4.185331   3.761515   4.373058   4.119581   5.361062
    15  C    4.253186   4.316219   3.776931   3.431795   4.345072
    16  H    4.932178   4.865365   4.356029   3.755387   5.011635
    17  C    4.397245   4.788336   3.682690   3.549763   3.777727
    18  H    5.150678   5.595817   4.207699   3.943647   4.109490
    19  C    4.092881   4.676657   3.596361   3.875921   3.419245
    20  H    4.676371   5.419626   4.065686   4.451185   3.498107
    21  C    3.596114   4.065803   3.607600   4.077814   3.704090
    22  H    3.875151   4.450826   4.077285   4.756078   3.975433
    23  C    3.419453   3.498698   3.704538   3.976401   4.281613
    24  H    3.586863   3.496724   4.236347   4.607574   4.906717
                    6          7          8          9         10
     6  H    0.000000
     7  C    2.161796   0.000000
     8  H    2.490618   1.092438   0.000000
     9  C    3.410860   1.398154   2.162436   0.000000
    10  H    4.313425   2.162620   2.491173   1.092498   0.000000
    11  C    3.886287   2.420833   3.411120   1.397807   2.162288
    12  H    4.978692   3.411045   4.313420   2.161922   2.490485
    13  C    5.013547   5.234946   6.062384   5.226514   6.050014
    14  H    5.843781   6.062598   6.963460   5.927812   6.754066
    15  C    4.477010   5.226707   5.927771   5.580315   6.477246
    16  H    5.008434   6.050522   6.754342   6.477560   7.427024
    17  C    3.730104   4.555467   5.051561   5.150295   5.984339
    18  H    3.760930   4.989249   5.335127   5.806946   6.648343
    19  C    3.586871   3.776998   4.184254   4.252219   4.930943
    20  H    3.496339   3.644231   3.759972   4.314969   4.863857
    21  C    4.236132   3.787408   4.371787   3.775578   4.354393
    22  H    4.606892   3.657654   4.117705   3.429696   3.752941
    23  C    4.906879   4.573052   5.360323   4.344250   5.010511
    24  H    5.675076   5.012858   5.842954   4.476028   5.007139
                   11         12         13         14         15
    11  C    0.000000
    12  H    1.092437   0.000000
    13  C    4.555596   4.989199   0.000000
    14  H    5.051925   5.335306   1.092438   0.000000
    15  C    5.150593   5.807065   1.398154   2.162440   0.000000
    16  H    5.984927   6.648740   2.162621   2.491180   1.092498
    17  C    5.081530   5.877247   2.420835   3.411125   1.397807
    18  H    5.877382   6.756518   3.411049   4.313426   2.161925
    19  C    4.396670   5.150044   2.794499   3.886931   2.420807
    20  H    4.787538   5.595007   3.886328   4.978741   3.410541
    21  C    3.681748   4.206700   2.420957   3.410892   2.795933
    22  H    3.548206   3.942072   3.409934   4.311819   3.887165
    23  C    3.777218   4.108831   1.397501   2.161936   2.420742
    24  H    3.729380   3.760005   2.161802   2.490621   3.410863
                   16         17         18         19         20
    16  H    0.000000
    17  C    2.162286   0.000000
    18  H    2.490484   1.092437   0.000000
    19  C    3.411140   1.397704   2.162149   0.000000
    20  H    4.313014   2.161671   2.490550   1.091890   0.000000
    21  C    3.888426   2.420667   3.410591   1.396531   2.159459
    22  H    4.979628   3.409663   4.311525   2.160136   2.486928
    23  C    3.411100   2.794243   3.886668   2.418676   3.407849
    24  H    4.313431   3.886290   4.978696   3.407851   4.308552
                   21         22         23         24
    21  C    0.000000
    22  H    1.091381   0.000000
    23  C    1.396980   2.160631   0.000000
    24  H    2.159837   2.487320   1.092097   0.000000
 Stoichiometry    C12H12
 Framework group  C1[X(C12H12)]
 Deg. of freedom    66
 Full point group                 C1      NOp   1
 Largest Abelian subgroup         C1      NOp   1
 Largest concise Abelian subgroup C1      NOp   1
                         Standard orientation:                         
 ---------------------------------------------------------------------
 Center     Atomic      Atomic             Coordinates (Angstroms)
 Number     Number       Type             X           Y           Z
 ---------------------------------------------------------------------
      1          6           0        1.386037    1.132955    0.991987
      2          1           0        1.004021    2.018230    1.504408
      3          6           0        1.052246   -0.140219    1.458798
      4          1           0        0.404742   -0.249661    2.330508
      5          6           0        1.526882   -1.273484    0.793977
      6          1           0        1.255653   -2.268598    1.152948
      7          6           0        2.334364   -1.134366   -0.338113
      8          1           0        2.701129   -2.021150   -0.860145
      9          6           0        2.667200    0.140348   -0.806255
     10          1           0        3.295010    0.250109   -1.693588
     11          6           0        2.193559    1.274239   -0.140058
     12          1           0        2.449136    2.270500   -0.508246
     13          6           0       -2.334744    1.134380    0.337816
     14          1           0       -2.701815    2.021178    0.859610
     15          6           0       -2.667812   -0.140325    0.805819
     16          1           0       -3.296106   -0.250071    1.692812
     17          6           0       -2.193793   -1.274232    0.139917
     18          1           0       -2.449562   -2.270486    0.507991
     19          6           0       -1.385657   -1.132968   -0.991691
     20          1           0       -1.003326   -2.018243   -1.503877
     21          6           0       -1.051636    0.140195   -1.458363
     22          1           0       -0.403630    0.249617   -2.329699
     23          6           0       -1.526649    1.273475   -0.793839
     24          1           0       -1.255229    2.268578   -1.152696
 ---------------------------------------------------------------------
 Rotational constants (GHZ):           1.6181219           0.6880869           0.6494911
 Leave Link  202 at Thu Jun 16 14:44:24 2022, MaxMem=   104857600 cpu:               0.6 elap:               0.2
 (Enter /apps/software/g16/l301.exe)
 Standard basis: def2SVP (5D, 7F)
 Ernie: Thresh=  0.10000D-02 Tol=  0.10000D-05 Strict=F.
 There are   240 symmetry adapted cartesian basis functions of A   symmetry.
 There are   228 symmetry adapted basis functions of A   symmetry.
   228 basis functions,   384 primitive gaussians,   240 cartesian basis functions
    42 alpha electrons       42 beta electrons
       nuclear repulsion energy       626.2801913588 Hartrees.
 IExCor=  402 DFT=T Ex+Corr=B3LYP ExCW=0 ScaHFX=  0.200000
 ScaDFX=  0.800000  0.720000  1.000000  0.810000 ScalE2=  1.000000  1.000000
 IRadAn=      5 IRanWt=     -1 IRanGd=            0 ICorTp=0 IEmpDi=  4
 NAtoms=   24 NActive=   24 NUniq=   24 SFac= 1.00D+00 NAtFMM=   60 NAOKFM=F Big=F
 Integral buffers will be    131072 words long.
 Regular integral format.
 Two-electron integral symmetry is turned on.
 Leave Link  301 at Thu Jun 16 14:44:25 2022, MaxMem=   104857600 cpu:               1.0 elap:               0.3
 (Enter /apps/software/g16/l302.exe)
 NPDir=0 NMtPBC=     1 NCelOv=     1 NCel=       1 NClECP=     1 NCelD=      1
         NCelK=      1 NCelE2=     1 NClLst=     1 CellRange=     0.0.
 One-electron integrals computed using PRISM.
 One-electron integral symmetry used in STVInt
   1 Symmetry operations used in ECPInt.
 ECPInt:  NShTT=    5886 NPrTT=   21102 LenC2=    5794 LenP2D=   16034.
 LDataN:  DoStor=T MaxTD1= 4 Len=   56
 NBasis=   228 RedAO= T EigKep=  2.82D-04  NBF=   228
 NBsUse=   228 1.00D-06 EigRej= -1.00D+00 NBFU=   228
 Precomputing XC quadrature grid using
 IXCGrd= 4 IRadAn=           5 IRanWt=          -1 IRanGd=           0 AccXCQ= 0.00D+00.
 Generated NRdTot=       0 NPtTot=           0 NUsed=           0 NTot=          32
 NSgBfM=   240   240   240   240   240 MxSgAt=    24 MxSgA2=    24.
 Leave Link  302 at Thu Jun 16 14:44:26 2022, MaxMem=   104857600 cpu:               5.3 elap:               1.0
 (Enter /apps/software/g16/l303.exe)
 DipDrv:  MaxL=1.
 Leave Link  303 at Thu Jun 16 14:44:26 2022, MaxMem=   104857600 cpu:               0.2 elap:               0.0
 (Enter /apps/software/g16/l308.exe)
 Leave Link  308 at Thu Jun 16 14:44:27 2022, MaxMem=   104857600 cpu:               1.8 elap:               0.4
 (Enter /apps/software/g16/l401.exe)
 ExpMin= 1.22D-01 ExpMax= 1.24D+03 ExpMxC= 1.86D+02 IAcc=3 IRadAn=         5 AccDes= 0.00D+00
 Harris functional with IExCor=  402 and IRadAn=       5 diagonalized for initial guess.
 HarFok:  IExCor=  402 AccDes= 0.00D+00 IRadAn=         5 IDoV= 1 UseB2=F ITyADJ=14
 ICtDFT=  3500011 ScaDFX=  1.000000  1.000000  1.000000  1.000000
 FoFCou: FMM=F IPFlag=           0 FMFlag=      100000 FMFlg1=           0
         NFxFlg=           0 DoJE=T BraDBF=F KetDBF=T FulRan=T
         wScrn=  0.000000 ICntrl=       500 IOpCl=  0 I1Cent=   200000004 NGrid=           0
         NMat0=    1 NMatS0=      1 NMatT0=    0 NMatD0=    1 NMtDS0=    0 NMtDT0=    0
 Petite list used in FoFCou.
 Harris En= -464.188128475514    
 JPrj=0 DoOrth=F DoCkMO=F.
 Leave Link  401 at Thu Jun 16 14:44:29 2022, MaxMem=   104857600 cpu:              11.7 elap:               2.1
 (Enter /apps/software/g16/l502.exe)
 Integral symmetry usage will be decided dynamically.
 Closed shell SCF:
 Using DIIS extrapolation, IDIIS=  1040.
 NGot=   104857600 LenX=   104737836 LenY=   104679795
 Requested convergence on RMS density matrix=1.00D-08 within 128 cycles.
 Requested convergence on MAX density matrix=1.00D-06.
 Requested convergence on             energy=1.00D-06.
 No special actions if energy rises.
 Fock matrices will be formed incrementally for  20 cycles.
 Integral accuracy reduced to 1.0D-05 until final iterations.

 Cycle   1  Pass 0  IDiag  1:
 FoFJK:  IHMeth= 1 ICntrl=       0 DoSepK=F KAlg= 0 I1Cent=           0 FoldK=F
 IRaf= 960000000 NMat=       1 IRICut=       1 DoRegI=T DoRafI=F ISym2E= 0 IDoP0=0 IntGTp=1.
 FoFCou: FMM=F IPFlag=           0 FMFlag=      100000 FMFlg1=           0
         NFxFlg=           0 DoJE=F BraDBF=F KetDBF=F FulRan=T
         wScrn=  0.000000 ICntrl=         0 IOpCl=  0 I1Cent=           0 NGrid=           0
         NMat0=    1 NMatS0=      1 NMatT0=    0 NMatD0=    1 NMtDS0=    0 NMtDT0=    0
 Symmetry not used in FoFCou.
 E= -463.882925374630    
 DIIS: error= 3.91D-02 at cycle   1 NSaved=   1.
 NSaved= 1 IEnMin= 1 EnMin= -463.882925374630     IErMin= 1 ErrMin= 3.91D-02
 ErrMax= 3.91D-02  0.00D+00 EMaxC= 1.00D-01 BMatC= 2.22D-01 BMatP= 2.22D-01
 IDIUse=3 WtCom= 6.09D-01 WtEn= 3.91D-01
 Coeff-Com:  0.100D+01
 Coeff-En:   0.100D+01
 Coeff:      0.100D+01
 Gap=     0.231 Goal=   None    Shift=    0.000
 GapD=    0.231 DampG=1.000 DampE=0.500 DampFc=0.5000 IDamp=-1.
 Damping current iteration by 5.00D-01
 RMSDP=6.73D-03 MaxDP=9.64D-02              OVMax= 1.58D-01

 Cycle   2  Pass 0  IDiag  1:
 RMSU=  2.94D-03    CP:  9.33D-01
 E= -464.012201229039     Delta-E=       -0.129275854409 Rises=F Damp=T
 DIIS: error= 7.79D-03 at cycle   2 NSaved=   2.
 NSaved= 2 IEnMin= 2 EnMin= -464.012201229039     IErMin= 2 ErrMin= 7.79D-03
 ErrMax= 7.79D-03  0.00D+00 EMaxC= 1.00D-01 BMatC= 1.04D-02 BMatP= 2.22D-01
 IDIUse=3 WtCom= 9.22D-01 WtEn= 7.79D-02
 Coeff-Com:  0.467D-01 0.953D+00
 Coeff-En:   0.570D-01 0.943D+00
 Coeff:      0.475D-01 0.952D+00
 Gap=     0.291 Goal=   None    Shift=    0.000
 RMSDP=1.62D-03 MaxDP=1.93D-02 DE=-1.29D-01 OVMax= 9.18D-02

 Cycle   3  Pass 0  IDiag  1:
 RMSU=  1.51D-03    CP:  9.09D-01  1.06D+00
 E= -464.162903098040     Delta-E=       -0.150701869001 Rises=F Damp=F
 DIIS: error= 3.80D-03 at cycle   3 NSaved=   3.
 NSaved= 3 IEnMin= 3 EnMin= -464.162903098040     IErMin= 3 ErrMin= 3.80D-03
 ErrMax= 3.80D-03  0.00D+00 EMaxC= 1.00D-01 BMatC= 2.76D-03 BMatP= 1.04D-02
 IDIUse=3 WtCom= 9.62D-01 WtEn= 3.80D-02
 Coeff-Com: -0.204D-01 0.310D+00 0.711D+00
 Coeff-En:   0.000D+00 0.000D+00 0.100D+01
 Coeff:     -0.197D-01 0.298D+00 0.722D+00
 Gap=     0.234 Goal=   None    Shift=    0.000
 RMSDP=5.76D-04 MaxDP=1.24D-02 DE=-1.51D-01 OVMax= 2.02D-02

 Cycle   4  Pass 0  IDiag  1:
 RMSU=  4.69D-04    CP:  9.03D-01  1.14D+00  8.85D-01
 E= -464.164590491624     Delta-E=       -0.001687393584 Rises=F Damp=F
 DIIS: error= 2.80D-03 at cycle   4 NSaved=   4.
 NSaved= 4 IEnMin= 4 EnMin= -464.164590491624     IErMin= 4 ErrMin= 2.80D-03
 ErrMax= 2.80D-03  0.00D+00 EMaxC= 1.00D-01 BMatC= 9.05D-04 BMatP= 2.76D-03
 IDIUse=3 WtCom= 9.72D-01 WtEn= 2.80D-02
 Coeff-Com: -0.148D-01 0.121D+00 0.406D+00 0.488D+00
 Coeff-En:   0.000D+00 0.000D+00 0.257D+00 0.743D+00
 Coeff:     -0.144D-01 0.117D+00 0.402D+00 0.495D+00
 Gap=     0.233 Goal=   None    Shift=    0.000
 RMSDP=1.99D-04 MaxDP=4.24D-03 DE=-1.69D-03 OVMax= 1.32D-02

 Cycle   5  Pass 0  IDiag  1:
 RMSU=  1.55D-04    CP:  9.02D-01  1.14D+00  9.16D-01  7.54D-01
 E= -464.165540002779     Delta-E=       -0.000949511155 Rises=F Damp=F
 DIIS: error= 9.41D-04 at cycle   5 NSaved=   5.
 NSaved= 5 IEnMin= 5 EnMin= -464.165540002779     IErMin= 5 ErrMin= 9.41D-04
 ErrMax= 9.41D-04  0.00D+00 EMaxC= 1.00D-01 BMatC= 1.09D-04 BMatP= 9.05D-04
 IDIUse=3 WtCom= 9.91D-01 WtEn= 9.41D-03
 Coeff-Com: -0.509D-02 0.982D-02 0.827D-01 0.281D+00 0.631D+00
 Coeff-En:   0.000D+00 0.000D+00 0.000D+00 0.114D+00 0.886D+00
 Coeff:     -0.504D-02 0.973D-02 0.819D-01 0.280D+00 0.634D+00
 Gap=     0.233 Goal=   None    Shift=    0.000
 RMSDP=5.20D-05 MaxDP=1.12D-03 DE=-9.50D-04 OVMax= 3.53D-03

 Cycle   6  Pass 0  IDiag  1:
 RMSU=  1.59D-05    CP:  9.02D-01  1.14D+00  9.16D-01  7.94D-01  7.07D-01
 E= -464.165667032674     Delta-E=       -0.000127029895 Rises=F Damp=F
 DIIS: error= 6.28D-05 at cycle   6 NSaved=   6.
 NSaved= 6 IEnMin= 6 EnMin= -464.165667032674     IErMin= 6 ErrMin= 6.28D-05
 ErrMax= 6.28D-05  0.00D+00 EMaxC= 1.00D-01 BMatC= 8.09D-07 BMatP= 1.09D-04
 IDIUse=1 WtCom= 1.00D+00 WtEn= 0.00D+00
 Coeff-Com: -0.170D-02 0.192D-02 0.251D-01 0.970D-01 0.240D+00 0.638D+00
 Coeff:     -0.170D-02 0.192D-02 0.251D-01 0.970D-01 0.240D+00 0.638D+00
 Gap=     0.233 Goal=   None    Shift=    0.000
 RMSDP=6.68D-06 MaxDP=1.23D-04 DE=-1.27D-04 OVMax= 2.39D-04

 Initial convergence to 1.0D-05 achieved.  Increase integral accuracy.
 Cycle   7  Pass 1  IDiag  1:
 E= -464.165667929358     Delta-E=       -0.000000896684 Rises=F Damp=F
 DIIS: error= 4.39D-05 at cycle   1 NSaved=   1.
 NSaved= 1 IEnMin= 1 EnMin= -464.165667929358     IErMin= 1 ErrMin= 4.39D-05
 ErrMax= 4.39D-05  0.00D+00 EMaxC= 1.00D-01 BMatC= 2.49D-07 BMatP= 2.49D-07
 IDIUse=1 WtCom= 1.00D+00 WtEn= 0.00D+00
 Coeff-Com:  0.100D+01
 Coeff:      0.100D+01
 Gap=     0.233 Goal=   None    Shift=    0.000
 RMSDP=6.68D-06 MaxDP=1.23D-04 DE=-8.97D-07 OVMax= 2.00D-04

 Cycle   8  Pass 1  IDiag  1:
 RMSU=  1.96D-05    CP:  1.00D+00
 E= -464.165667893149     Delta-E=        0.000000036208 Rises=F Damp=F
 DIIS: error= 3.98D-05 at cycle   2 NSaved=   2.
 NSaved= 2 IEnMin= 1 EnMin= -464.165667929358     IErMin= 2 ErrMin= 3.98D-05
 ErrMax= 3.98D-05  0.00D+00 EMaxC= 1.00D-01 BMatC= 2.25D-07 BMatP= 2.49D-07
 IDIUse=1 WtCom= 1.00D+00 WtEn= 0.00D+00
 Coeff-Com:  0.485D+00 0.515D+00
 Coeff:      0.485D+00 0.515D+00
 Gap=     0.233 Goal=   None    Shift=    0.000
 RMSDP=2.53D-06 MaxDP=6.56D-05 DE= 3.62D-08 OVMax= 1.49D-04

 Cycle   9  Pass 1  IDiag  1:
 RMSU=  2.51D-06    CP:  1.00D+00  9.83D-01
 E= -464.165668100811     Delta-E=       -0.000000207661 Rises=F Damp=F
 DIIS: error= 1.09D-05 at cycle   3 NSaved=   3.
 NSaved= 3 IEnMin= 3 EnMin= -464.165668100811     IErMin= 3 ErrMin= 1.09D-05
 ErrMax= 1.09D-05  0.00D+00 EMaxC= 1.00D-01 BMatC= 1.69D-08 BMatP= 2.25D-07
 IDIUse=1 WtCom= 1.00D+00 WtEn= 0.00D+00
 Coeff-Com:  0.738D-02 0.215D+00 0.777D+00
 Coeff:      0.738D-02 0.215D+00 0.777D+00
 Gap=     0.233 Goal=   None    Shift=    0.000
 RMSDP=6.39D-07 MaxDP=1.59D-05 DE=-2.08D-07 OVMax= 3.32D-05

 Cycle  10  Pass 1  IDiag  1:
 RMSU=  3.55D-07    CP:  1.00D+00  9.96D-01  8.14D-01
 E= -464.165668117207     Delta-E=       -0.000000016396 Rises=F Damp=F
 DIIS: error= 1.60D-06 at cycle   4 NSaved=   4.
 NSaved= 4 IEnMin= 4 EnMin= -464.165668117207     IErMin= 4 ErrMin= 1.60D-06
 ErrMax= 1.60D-06  0.00D+00 EMaxC= 1.00D-01 BMatC= 4.88D-10 BMatP= 1.69D-08
 IDIUse=1 WtCom= 1.00D+00 WtEn= 0.00D+00
 Coeff-Com: -0.172D-02 0.103D+00 0.393D+00 0.506D+00
 Coeff:     -0.172D-02 0.103D+00 0.393D+00 0.506D+00
 Gap=     0.233 Goal=   None    Shift=    0.000
 RMSDP=1.66D-07 MaxDP=3.07D-06 DE=-1.64D-08 OVMax= 8.28D-06

 Cycle  11  Pass 1  IDiag  1:
 RMSU=  9.95D-08    CP:  1.00D+00  9.97D-01  8.12D-01  6.28D-01
 E= -464.165668117678     Delta-E=       -0.000000000472 Rises=F Damp=F
 DIIS: error= 6.70D-07 at cycle   5 NSaved=   5.
 NSaved= 5 IEnMin= 5 EnMin= -464.165668117678     IErMin= 5 ErrMin= 6.70D-07
 ErrMax= 6.70D-07  0.00D+00 EMaxC= 1.00D-01 BMatC= 5.48D-11 BMatP= 4.88D-10
 IDIUse=1 WtCom= 1.00D+00 WtEn= 0.00D+00
 Coeff-Com: -0.154D-02 0.513D-01 0.198D+00 0.312D+00 0.440D+00
 Coeff:     -0.154D-02 0.513D-01 0.198D+00 0.312D+00 0.440D+00
 Gap=     0.233 Goal=   None    Shift=    0.000
 RMSDP=4.06D-08 MaxDP=9.58D-07 DE=-4.72D-10 OVMax= 2.76D-06

 Cycle  12  Pass 1  IDiag  1:
 RMSU=  3.23D-08    CP:  1.00D+00  9.97D-01  8.12D-01  6.55D-01  7.81D-01
 E= -464.165668117745     Delta-E=       -0.000000000067 Rises=F Damp=F
 DIIS: error= 6.60D-08 at cycle   6 NSaved=   6.
 NSaved= 6 IEnMin= 6 EnMin= -464.165668117745     IErMin= 6 ErrMin= 6.60D-08
 ErrMax= 6.60D-08  0.00D+00 EMaxC= 1.00D-01 BMatC= 8.11D-13 BMatP= 5.48D-11
 IDIUse=1 WtCom= 1.00D+00 WtEn= 0.00D+00
 Coeff-Com: -0.265D-03 0.410D-02 0.164D-01 0.351D-01 0.132D+00 0.813D+00
 Coeff:     -0.265D-03 0.410D-02 0.164D-01 0.351D-01 0.132D+00 0.813D+00
 Gap=     0.233 Goal=   None    Shift=    0.000
 RMSDP=6.99D-09 MaxDP=2.13D-07 DE=-6.66D-11 OVMax= 3.51D-07

 SCF Done:  E(RB3LYP) =  -464.165668118     A.U. after   12 cycles
            NFock= 12  Conv=0.70D-08     -V/T= 2.0120
 KE= 4.586789488704D+02 PE=-2.325488909894D+03 EE= 7.763641015467D+02
 Leave Link  502 at Thu Jun 16 14:44:43 2022, MaxMem=   104857600 cpu:             110.2 elap:              13.9
 (Enter /apps/software/g16/l801.exe)
 DoSCS=F DFT=T ScalE2(SS,OS)=  1.000000  1.000000
 ExpMin= 1.22D-01 ExpMax= 1.24D+03 ExpMxC= 1.86D+02 IAcc=3 IRadAn=         5 AccDes= 0.00D+00
 HarFok:  IExCor=  205 AccDes= 0.00D+00 IRadAn=         5 IDoV=-2 UseB2=F ITyADJ=14
 ICtDFT= 12500011 ScaDFX=  1.000000  1.000000  1.000000  1.000000
 Largest valence mixing into a core orbital is  7.13D-05
 Largest core mixing into a valence orbital is  4.05D-05
 Range of M.O.s used for correlation:    13   228
 NBasis=   228 NAE=    42 NBE=    42 NFC=    12 NFV=     0
 NROrb=    216 NOA=    30 NOB=    30 NVA=   186 NVB=   186

 **** Warning!!: The largest alpha MO coefficient is  0.11740860D+02

 Leave Link  801 at Thu Jun 16 14:44:43 2022, MaxMem=   104857600 cpu:               0.7 elap:               0.1
 (Enter /apps/software/g16/l914.exe)
 RHF ground state
 Two-electron integrals replicated using symmetry.
 MDV=   104857600 DFT=T DoStab=F Mixed=T DoRPA=T DoScal=F NonHer=T
 Making orbital integer symmetry assigments:
 Orbital symmetries:
       Occupied  (A) (A) (A) (A) (A) (A) (A) (A) (A) (A) (A) (A)
                 (A) (A) (A) (A) (A) (A) (A) (A) (A) (A) (A) (A)
                 (A) (A) (A) (A) (A) (A) (A) (A) (A) (A) (A) (A)
                 (A) (A) (A) (A) (A) (A)
       Virtual   (A) (A) (A) (A) (A) (A) (A) (A) (A) (A) (A) (A)
                 (A) (A) (A) (A) (A) (A) (A) (A) (A) (A) (A) (A)
                 (A) (A) (A) (A) (A) (A) (A) (A) (A) (A) (A) (A)
                 (A) (A) (A) (A) (A) (A) (A) (A) (A) (A) (A) (A)
                 (A) (A) (A) (A) (A) (A) (A) (A) (A) (A) (A) (A)
                 (A) (A) (A) (A) (A) (A) (A) (A) (A) (A) (A) (A)
                 (A) (A) (A) (A) (A) (A) (A) (A) (A) (A) (A) (A)
                 (A) (A) (A) (A) (A) (A) (A) (A) (A) (A) (A) (A)
                 (A) (A) (A) (A) (A) (A) (A) (A) (A) (A) (A) (A)
                 (A) (A) (A) (A) (A) (A) (A) (A) (A) (A) (A) (A)
                 (A) (A) (A) (A) (A) (A) (A) (A) (A) (A) (A) (A)
                 (A) (A) (A) (A) (A) (A) (A) (A) (A) (A) (A) (A)
                 (A) (A) (A) (A) (A) (A) (A) (A) (A) (A) (A) (A)
                 (A) (A) (A) (A) (A) (A) (A) (A) (A) (A) (A) (A)
                 (A) (A) (A) (A) (A) (A) (A) (A) (A) (A) (A) (A)
                 (A) (A) (A) (A) (A) (A)
    40 initial guesses have been made.
 Convergence on wavefunction:    0.001000000000000
 Davidson Disk Diagonalization:  ConvIn= 1.00D-03 SkipCon=T Conv= 1.00D-03.
 Max sub-space:  2000 roots to seek:    40 dimension of matrix:        11160
 Iteration     1 Dimension    40 NMult     0 NNew     40
 CISAX will form    24 AO SS matrices at one time.
 NMat=    24 NSing=     0 JSym2X= 0.
 FoFJK:  IHMeth= 1 ICntrl=       0 DoSepK=F KAlg= 0 I1Cent=           0 FoldK=F
 IRaf= 960000000 NMat=      48 IRICut=      60 DoRegI=T DoRafI=T ISym2E= 0 IDoP0=3 IntGTp=3.
 FoFCou: FMM=F IPFlag=           0 FMFlag=      100000 FMFlg1=           0
         NFxFlg=           0 DoJE=F BraDBF=F KetDBF=F FulRan=T
         wScrn=  0.000000 ICntrl=         0 IOpCl=  0 I1Cent=           0 NGrid=           0
         NMat0=   48 NMatS0=      0 NMatT0=   24 NMatD0=   48 NMtDS0=    0 NMtDT0=    0
 Symmetry not used in FoFCou.
 Raff kept on since  93.59% of shell-pairs survive, threshold=   0.20 IRatSp=94.
 NMat=    16 NSing=     0 JSym2X= 0.
 New state      1 was old state      2
 New state      2 was old state      3
 New state      3 was old state      1
 New state      4 was old state      6
 New state      6 was old state      4
 New state      7 was old state      9
 New state      8 was old state      7
 New state      9 was old state     11
 Excitation Energies [eV] at current iteration:
 Root      1 :     4.192936116037957
 Root      2 :     4.213007053735475
 Root      3 :     4.740091598384060
 Root      4 :     4.762822754981956
 Root      5 :     4.780039811539194
 Root      6 :     4.787709230399483
 Root      7 :     5.112757381825103
 Root      8 :     5.157529415508464
 Root      9 :     5.955256504021883
 Root     10 :     5.973042638459435
 Root     11 :     5.978513710908292
 Root     12 :     5.985142958534177
 Root     13 :     6.033618844548644
 Root     14 :     6.057536569030870
 Root     15 :     6.073999941836753
 Root     16 :     6.144820265864662
 Root     17 :     7.026196236231816
 Root     18 :     7.229507530247150
 Root     19 :     7.264507934477733
 Root     20 :     7.391121987401295
 Root     21 :     7.575492484612501
 Root     22 :     7.577489391145235
 Root     23 :     7.632874792477259
 Root     24 :     7.633398829206832
 Root     25 :     7.878108871423307
 Root     26 :     7.928292903266316
 Root     27 :     7.933305523974740
 Root     28 :     7.950635842403090
 Root     29 :     7.962892352202354
 Root     30 :     7.963837786636742
 Root     31 :     8.003323377546238
 Root     32 :     8.070380898418655
 Root     33 :     8.251740698909822
 Root     34 :     8.274220625872772
 Root     35 :     8.384836304770333
 Root     36 :     8.415780602962444
 Root     37 :     8.503228068641329
 Root     38 :     8.503842616618231
 Root     39 :     8.513002145079501
 Root     40 :     8.514172936061186
 Iteration     2 Dimension    60 NMult    40 NNew     20
 CISAX will form    20 AO SS matrices at one time.
 NMat=    20 NSing=     0 JSym2X= 0.
 Root      1 not converged, maximum delta is    0.117663104690045
 Root      2 not converged, maximum delta is    0.107736969882334
 Root      3 not converged, maximum delta is    0.015795299264158
 Root      4 not converged, maximum delta is    0.014192722719169
 Root      5 not converged, maximum delta is    0.016194975373820
 Root      6 not converged, maximum delta is    0.014728399119873
 Root      7 not converged, maximum delta is    0.013462617904924
 Root      8 not converged, maximum delta is    0.011300135305788
 Root      9 not converged, maximum delta is    0.070196116061129
 Root     10 not converged, maximum delta is    0.057962975473245
 Excitation Energies [eV] at current iteration:
 Root      1 :     3.754915525482226   Change is   -0.438020590555731
 Root      2 :     3.772751104056254   Change is   -0.440255949679221
 Root      3 :     4.681538638550013   Change is   -0.058552959834047
 Root      4 :     4.703337510833355   Change is   -0.059485244148601
 Root      5 :     4.719974816516898   Change is   -0.060064995022295
 Root      6 :     4.728593464539466   Change is   -0.059115765860016
 Root      7 :     5.086712718443204   Change is   -0.026044663381899
 Root      8 :     5.131744162040251   Change is   -0.025785253468213
 Root      9 :     5.920393259309932   Change is   -0.034863244711951
 Root     10 :     5.952937500638678   Change is   -0.020105137820758
 Iteration     3 Dimension    80 NMult    60 NNew     20
 CISAX will form    20 AO SS matrices at one time.
 NMat=    20 NSing=     0 JSym2X= 0.
 Root      1 not converged, maximum delta is    0.003226034684504
 Root      2 not converged, maximum delta is    0.003172765181917
 Root      3 not converged, maximum delta is    0.001778336205011
 Root      4 not converged, maximum delta is    0.001422533072850
 Root      5 not converged, maximum delta is    0.002010028080016
 Root      6 not converged, maximum delta is    0.001351299921924
 Root      7 not converged, maximum delta is    0.002965330000401
 Root      8 not converged, maximum delta is    0.001129888257007
 Root      9 not converged, maximum delta is    0.013608846125552
 Root     10 not converged, maximum delta is    0.013305038879944
 Excitation Energies [eV] at current iteration:
 Root      1 :     3.748359980455520   Change is   -0.006555545026706
 Root      2 :     3.765835327884148   Change is   -0.006915776172106
 Root      3 :     4.680115429671964   Change is   -0.001423208878049
 Root      4 :     4.702046512489452   Change is   -0.001290998343904
 Root      5 :     4.718485677794677   Change is   -0.001489138722222
 Root      6 :     4.727414849108555   Change is   -0.001178615430912
 Root      7 :     5.086197821852412   Change is   -0.000514896590792
 Root      8 :     5.131397206490332   Change is   -0.000346955549919
 Root      9 :     5.915957420246728   Change is   -0.004435839063204
 Root     10 :     5.949376893207886   Change is   -0.003560607430791
 Iteration     4 Dimension   100 NMult    80 NNew     20
 CISAX will form    20 AO SS matrices at one time.
 NMat=    20 NSing=     0 JSym2X= 0.
 Root      1 has converged.
 Root      2 has converged.
 Root      3 has converged.
 Root      4 has converged.
 Root      5 has converged.
 Root      6 has converged.
 Root      7 has converged.
 Root      8 has converged.
 Root      9 not converged, maximum delta is    0.001549779697859
 Root     10 has converged.
 Excitation Energies [eV] at current iteration:
 Root      1 :     3.748251874724748   Change is   -0.000108105730772
 Root      2 :     3.765704909337771   Change is   -0.000130418546377
 Root      3 :     4.680026905829491   Change is   -0.000088523842472
 Root      4 :     4.701966784840014   Change is   -0.000079727649437
 Root      5 :     4.718394065313340   Change is   -0.000091612481338
 Root      6 :     4.727352885059746   Change is   -0.000061964048809
 Root      7 :     5.086164093494132   Change is   -0.000033728358280
 Root      8 :     5.131384369223654   Change is   -0.000012837266678
 Root      9 :     5.915717030777737   Change is   -0.000240389468992
 Root     10 :     5.949233963924293   Change is   -0.000142929283593
 Iteration     5 Dimension   102 NMult   100 NNew      2
 CISAX will form     2 AO SS matrices at one time.
 NMat=     2 NSing=     0 JSym2X= 0.
 Root      1 has converged.
 Root      2 has converged.
 Root      3 has converged.
 Root      4 has converged.
 Root      5 has converged.
 Root      6 has converged.
 Root      7 has converged.
 Root      8 has converged.
 Root      9 has converged.
 Root     10 has converged.
 Excitation Energies [eV] at current iteration:
 Root      1 :     3.748251779434632   Change is   -0.000000095290116
 Root      2 :     3.765704909310199   Change is   -0.000000000027572
 Root      3 :     4.680026905757666   Change is   -0.000000000071826
 Root      4 :     4.701966754984470   Change is   -0.000000029855544
 Root      5 :     4.718394064930160   Change is   -0.000000000383179
 Root      6 :     4.727352883436082   Change is   -0.000000001623664
 Root      7 :     5.086164093487651   Change is   -0.000000000006481
 Root      8 :     5.131384367368972   Change is   -0.000000001854681
 Root      9 :     5.915702444477924   Change is   -0.000014586299812
 Root     10 :     5.949233959922620   Change is   -0.000000004001672
 Convergence achieved on expansion vectors.
 ***********************************************************************
 Excited states from <AA,BB:AA,BB> singles matrix:
 ***********************************************************************
 
 1PDM for each excited state written to RWF  633
 Ground to excited state transition densities written to RWF  633
 Ground to excited state transition electric dipole moments (Au):
       state          X           Y           Z        Dip. S.      Osc.
         1        -0.0000     -0.0000     -0.0000      0.0000      0.0000
         2        -0.0000     -0.0000     -0.0000      0.0000      0.0000
         3        -0.0000     -0.0000     -0.0000      0.0000      0.0000
         4        -0.0000     -0.0000     -0.0000      0.0000      0.0000
         5        -0.0000     -0.0000     -0.0000      0.0000      0.0000
         6        -0.0000     -0.0000     -0.0000      0.0000      0.0000
         7        -0.0000     -0.0000     -0.0000      0.0000      0.0000
         8        -0.0000     -0.0000     -0.0000      0.0000      0.0000
         9        -0.0000     -0.0000     -0.0000      0.0000      0.0000
        10        -0.0000     -0.0000     -0.0000      0.0000      0.0000
 Ground to excited state transition velocity dipole moments (Au):
       state          X           Y           Z        Dip. S.      Osc.
         1         0.0000      0.0000      0.0000      0.0000      0.0000
         2         0.0000      0.0000      0.0000      0.0000      0.0000
         3         0.0000      0.0000      0.0000      0.0000      0.0000
         4         0.0000      0.0000      0.0000      0.0000      0.0000
         5         0.0000      0.0000      0.0000      0.0000      0.0000
         6         0.0000      0.0000      0.0000      0.0000      0.0000
         7         0.0000      0.0000      0.0000      0.0000      0.0000
         8         0.0000      0.0000      0.0000      0.0000      0.0000
         9         0.0000      0.0000      0.0000      0.0000      0.0000
        10         0.0000      0.0000      0.0000      0.0000      0.0000
 Ground to excited state transition magnetic dipole moments (Au):
       state          X           Y           Z
         1         0.0000      0.0000      0.0000
         2         0.0000      0.0000      0.0000
         3         0.0000      0.0000      0.0000
         4         0.0000      0.0000      0.0000
         5         0.0000      0.0000      0.0000
         6         0.0000      0.0000      0.0000
         7         0.0000      0.0000      0.0000
         8         0.0000      0.0000      0.0000
         9         0.0000      0.0000      0.0000
        10         0.0000      0.0000      0.0000
 Ground to excited state transition velocity quadrupole moments (Au):
       state          XX          YY          ZZ          XY          XZ          YZ
         1         0.0000      0.0000      0.0000      0.0000      0.0000      0.0000
         2         0.0000      0.0000      0.0000      0.0000      0.0000      0.0000
         3         0.0000      0.0000      0.0000      0.0000      0.0000      0.0000
         4         0.0000      0.0000      0.0000      0.0000      0.0000      0.0000
         5         0.0000      0.0000      0.0000      0.0000      0.0000      0.0000
         6         0.0000      0.0000      0.0000      0.0000      0.0000      0.0000
         7         0.0000      0.0000      0.0000      0.0000      0.0000      0.0000
         8         0.0000      0.0000      0.0000      0.0000      0.0000      0.0000
         9         0.0000      0.0000      0.0000      0.0000      0.0000      0.0000
        10         0.0000      0.0000      0.0000      0.0000      0.0000      0.0000
 <0|del|b> * <b|rxdel|0> + <0|del|b> * <b|delr+rdel|0>
 Rotatory Strengths (R) in cgs (10**-40 erg-esu-cm/Gauss)
       state          XX          YY          ZZ    R(velocity)    E-M Angle
         1         0.0000      0.0000      0.0000      0.0000       90.00
         2         0.0000      0.0000      0.0000      0.0000       90.00
         3         0.0000      0.0000      0.0000      0.0000       90.00
         4         0.0000      0.0000      0.0000      0.0000       90.00
         5         0.0000      0.0000      0.0000      0.0000       90.00
         6         0.0000      0.0000      0.0000      0.0000       90.00
         7         0.0000      0.0000      0.0000      0.0000       90.00
         8         0.0000      0.0000      0.0000      0.0000       90.00
         9         0.0000      0.0000      0.0000      0.0000       90.00
        10         0.0000      0.0000      0.0000      0.0000       90.00
 1/2[<0|r|b>*<b|rxdel|0> + (<0|rxdel|b>*<b|r|0>)*]
 Rotatory Strengths (R) in cgs (10**-40 erg-esu-cm/Gauss)
       state          XX          YY          ZZ     R(length)
         1         0.0000      0.0000      0.0000      0.0000
         2         0.0000      0.0000      0.0000      0.0000
         3         0.0000      0.0000      0.0000      0.0000
         4         0.0000      0.0000      0.0000      0.0000
         5         0.0000      0.0000      0.0000      0.0000
         6         0.0000      0.0000      0.0000      0.0000
         7         0.0000      0.0000      0.0000      0.0000
         8         0.0000      0.0000      0.0000      0.0000
         9         0.0000      0.0000      0.0000      0.0000
        10         0.0000      0.0000      0.0000      0.0000
  1/2[<0|del|b>*<b|r|0> + (<0|r|b>*<b|del|0>)*] (Au)
       state          X           Y           Z        Dip. S.   Osc.(frdel)
         1        -0.0000     -0.0000     -0.0000      0.0000      0.0000
         2        -0.0000     -0.0000     -0.0000      0.0000      0.0000
         3        -0.0000     -0.0000     -0.0000      0.0000      0.0000
         4        -0.0000     -0.0000     -0.0000      0.0000      0.0000
         5        -0.0000     -0.0000     -0.0000      0.0000      0.0000
         6        -0.0000     -0.0000     -0.0000      0.0000      0.0000
         7        -0.0000     -0.0000     -0.0000      0.0000      0.0000
         8        -0.0000     -0.0000     -0.0000      0.0000      0.0000
         9        -0.0000     -0.0000     -0.0000      0.0000      0.0000
        10        -0.0000     -0.0000     -0.0000      0.0000      0.0000

 Excitation energies and oscillator strengths:
 
 Excited State   1:      Triplet-A      3.7483 eV  330.78 nm  f=0.0000  <S**2>=2.000
      39 -> 45         0.30125
      40 -> 43        -0.35616
      41 -> 46        -0.33735
      42 -> 44         0.40401
 This state for optimization and/or second-order correction.
 Total Energy, E(TD-HF/TD-DFT) =  -464.027922399    
 Copying the excited state density for this state as the 1-particle RhoCI density.
 
 Excited State   2:      Triplet-A      3.7657 eV  329.25 nm  f=0.0000  <S**2>=2.000
      39 -> 44         0.31073
      40 -> 46         0.32877
      41 -> 43         0.36831
      42 -> 45         0.38974
 
 Excited State   3:      Triplet-A      4.6800 eV  264.92 nm  f=0.0000  <S**2>=2.000
      39 -> 46        -0.26630
      40 -> 44        -0.30023
      41 -> 45         0.30474
      42 -> 43         0.49458
 
 Excited State   4:      Triplet-A      4.7020 eV  263.69 nm  f=0.0000  <S**2>=2.000
      39 -> 45         0.26001
      40 -> 43         0.37728
      41 -> 46         0.33628
      42 -> 44         0.42103
 
 Excited State   5:      Triplet-A      4.7184 eV  262.77 nm  f=0.0000  <S**2>=2.000
      39 -> 44         0.27665
      40 -> 46        -0.32043
      41 -> 43        -0.38423
      42 -> 45         0.41487
 
 Excited State   6:      Triplet-A      4.7274 eV  262.27 nm  f=0.0000  <S**2>=2.000
      39 -> 43        -0.30549
      40 -> 45         0.33791
      41 -> 44        -0.36795
      42 -> 46         0.39686
 
 Excited State   7:      Triplet-A      5.0862 eV  243.77 nm  f=0.0000  <S**2>=2.000
      39 -> 46        -0.16408
      40 -> 44         0.39461
      41 -> 45        -0.39315
      42 -> 43         0.38899
 
 Excited State   8:      Triplet-A      5.1314 eV  241.62 nm  f=0.0000  <S**2>=2.000
      39 -> 43        -0.27501
      40 -> 45        -0.33229
      41 -> 44         0.36682
      42 -> 46         0.41167
 
 Excited State   9:      Triplet-A      5.9157 eV  209.58 nm  f=0.0000  <S**2>=2.000
      40 -> 43        -0.46586
      41 -> 46         0.51445
 
 Excited State  10:      Triplet-A      5.9492 eV  208.40 nm  f=0.0000  <S**2>=2.000
      40 -> 45         0.51332
      41 -> 44         0.47342
 SavETr:  write IOETrn=   770 NScale= 10 NData=  16 NLR=1 NState=   10 LETran=     190.
 Leave Link  914 at Thu Jun 16 14:46:54 2022, MaxMem=   104857600 cpu:            1014.2 elap:             130.4
 (Enter /apps/software/g16/l601.exe)
 Copying SCF densities to generalized density rwf, IOpCl= 0 IROHF=0.

 **********************************************************************

            Population analysis using the SCF density.

 **********************************************************************

 Orbital symmetries:
       Occupied  (A) (A) (A) (A) (A) (A) (A) (A) (A) (A) (A) (A)
                 (A) (A) (A) (A) (A) (A) (A) (A) (A) (A) (A) (A)
                 (A) (A) (A) (A) (A) (A) (A) (A) (A) (A) (A) (A)
                 (A) (A) (A) (A) (A) (A)
       Virtual   (A) (A) (A) (A) (A) (A) (A) (A) (A) (A) (A) (A)
                 (A) (A) (A) (A) (A) (A) (A) (A) (A) (A) (A) (A)
                 (A) (A) (A) (A) (A) (A) (A) (A) (A) (A) (A) (A)
                 (A) (A) (A) (A) (A) (A) (A) (A) (A) (A) (A) (A)
                 (A) (A) (A) (A) (A) (A) (A) (A) (A) (A) (A) (A)
                 (A) (A) (A) (A) (A) (A) (A) (A) (A) (A) (A) (A)
                 (A) (A) (A) (A) (A) (A) (A) (A) (A) (A) (A) (A)
                 (A) (A) (A) (A) (A) (A) (A) (A) (A) (A) (A) (A)
                 (A) (A) (A) (A) (A) (A) (A) (A) (A) (A) (A) (A)
                 (A) (A) (A) (A) (A) (A) (A) (A) (A) (A) (A) (A)
                 (A) (A) (A) (A) (A) (A) (A) (A) (A) (A) (A) (A)
                 (A) (A) (A) (A) (A) (A) (A) (A) (A) (A) (A) (A)
                 (A) (A) (A) (A) (A) (A) (A) (A) (A) (A) (A) (A)
                 (A) (A) (A) (A) (A) (A) (A) (A) (A) (A) (A) (A)
                 (A) (A) (A) (A) (A) (A) (A) (A) (A) (A) (A) (A)
                 (A) (A) (A) (A) (A) (A)
 The electronic state is 1-A.
 Alpha  occ. eigenvalues --  -10.18784 -10.18782 -10.18725 -10.18724 -10.18711
 Alpha  occ. eigenvalues --  -10.18710 -10.18670 -10.18667 -10.18644 -10.18642
 Alpha  occ. eigenvalues --  -10.18526 -10.18521  -0.84329  -0.83982  -0.73496
 Alpha  occ. eigenvalues --   -0.73354  -0.73311  -0.73200  -0.59342  -0.59310
 Alpha  occ. eigenvalues --   -0.59302  -0.59246  -0.51860  -0.51726  -0.45292
 Alpha  occ. eigenvalues --   -0.45282  -0.44463  -0.44437  -0.41916  -0.41831
 Alpha  occ. eigenvalues --   -0.41807  -0.41739  -0.37661  -0.35201  -0.34245
 Alpha  occ. eigenvalues --   -0.34238  -0.34234  -0.34224  -0.26207  -0.25190
 Alpha  occ. eigenvalues --   -0.24995  -0.24166
 Alpha virt. eigenvalues --   -0.00879  -0.00548  -0.00382  -0.00101   0.05028
 Alpha virt. eigenvalues --    0.07066   0.08680   0.09295   0.11033   0.11460
 Alpha virt. eigenvalues --    0.13097   0.13361   0.14413   0.14741   0.15070
 Alpha virt. eigenvalues --    0.15370   0.16254   0.16846   0.28559   0.28813
 Alpha virt. eigenvalues --    0.29197   0.29365   0.29909   0.30159   0.30358
 Alpha virt. eigenvalues --    0.30545   0.30689   0.36393   0.36613   0.40165
 Alpha virt. eigenvalues --    0.41022   0.41600   0.42199   0.43559   0.44960
 Alpha virt. eigenvalues --    0.45444   0.45509   0.46303   0.47875   0.50128
 Alpha virt. eigenvalues --    0.50599   0.50754   0.51040   0.52933   0.53522
 Alpha virt. eigenvalues --    0.54196   0.54539   0.57028   0.57578   0.61985
 Alpha virt. eigenvalues --    0.62378   0.63938   0.64285   0.64677   0.65917
 Alpha virt. eigenvalues --    0.66115   0.66722   0.67487   0.67788   0.67959
 Alpha virt. eigenvalues --    0.69950   0.70684   0.71439   0.72024   0.72321
 Alpha virt. eigenvalues --    0.73185   0.73874   0.74234   0.76363   0.76707
 Alpha virt. eigenvalues --    0.76767   0.78643   0.78831   0.80429   0.80943
 Alpha virt. eigenvalues --    0.85424   0.89145   0.90010   0.90577   0.91082
 Alpha virt. eigenvalues --    0.98891   1.01819   1.04214   1.07468   1.16631
 Alpha virt. eigenvalues --    1.16927   1.22915   1.24810   1.24949   1.25535
 Alpha virt. eigenvalues --    1.25667   1.26121   1.26372   1.27845   1.28529
 Alpha virt. eigenvalues --    1.28738   1.30960   1.31609   1.32957   1.35770
 Alpha virt. eigenvalues --    1.52595   1.52717   1.64728   1.65019   1.65257
 Alpha virt. eigenvalues --    1.65783   1.66861   1.68551   1.74384   1.74436
 Alpha virt. eigenvalues --    1.74454   1.75067   1.75204   1.76150   1.76229
 Alpha virt. eigenvalues --    1.76613   1.77504   1.77924   1.78223   1.79261
 Alpha virt. eigenvalues --    1.79824   1.81839   1.81885   1.83110   1.83624
 Alpha virt. eigenvalues --    1.85854   1.93236   1.95243   1.97981   1.98025
 Alpha virt. eigenvalues --    1.98150   1.98562   1.98863   1.98896   1.99547
 Alpha virt. eigenvalues --    1.99895   2.01188   2.02353   2.10396   2.13192
 Alpha virt. eigenvalues --    2.13839   2.14088   2.16573   2.16734   2.18940
 Alpha virt. eigenvalues --    2.21944   2.30514   2.30962   2.30996   2.31138
 Alpha virt. eigenvalues --    2.31227   2.31288   2.31559   2.32975   2.35233
 Alpha virt. eigenvalues --    2.35285   2.35387   2.35551   2.56139   2.56243
 Alpha virt. eigenvalues --    2.59868   2.60620   2.61741   2.64278   2.65108
 Alpha virt. eigenvalues --    2.65133   2.72089   2.72207   2.72389   2.72635
 Alpha virt. eigenvalues --    2.73428   2.73749   2.86558   2.86619   2.86668
 Alpha virt. eigenvalues --    2.86814   2.89671   2.91775   3.12377   3.12403
 Alpha virt. eigenvalues --    3.12531   3.12537   3.24874   3.25042   3.66284
 Alpha virt. eigenvalues --    3.66340
          Condensed to atoms (all electrons):
               1          2          3          4          5          6
     1  C    5.089212   0.436759   0.255104  -0.073412   0.112267   0.015812
     2  H    0.436759   0.730773  -0.073466  -0.013965   0.015615  -0.000331
     3  C    0.255104  -0.073466   5.087400   0.436967   0.253672  -0.074579
     4  H   -0.073412  -0.013965   0.436967   0.725180  -0.073869  -0.013995
     5  C    0.112267   0.015615   0.253672  -0.073869   5.092083   0.438233
     6  H    0.015812  -0.000331  -0.074579  -0.013995   0.438233   0.731692
     7  C   -0.162793  -0.001828   0.112610   0.015364   0.248643  -0.076191
     8  H   -0.001745   0.000037   0.015489  -0.000315  -0.075738  -0.013895
     9  C    0.110654   0.015399  -0.161441  -0.001801   0.110243   0.015484
    10  H    0.015555  -0.000322  -0.001868   0.000036   0.015542  -0.000322
    11  C    0.247348  -0.075528   0.112703   0.015392  -0.162366  -0.001884
    12  H   -0.075872  -0.013903   0.015601  -0.000316  -0.001770   0.000037
    13  C    0.000569   0.000784   0.000251   0.000445   0.000352  -0.000010
    14  H    0.000039   0.000099  -0.000047   0.000010  -0.000006  -0.000000
    15  C   -0.000167   0.000073  -0.001728   0.002620  -0.000378   0.000033
    16  H   -0.000018  -0.000002  -0.000036   0.000107  -0.000026  -0.000001
    17  C    0.000339  -0.000048  -0.000170   0.000856   0.001551   0.000611
    18  H   -0.000018  -0.000001  -0.000044   0.000034   0.000070   0.000115
    19  C   -0.000954  -0.000018  -0.002015  -0.000373  -0.003769   0.000441
    20  H   -0.000018   0.000001  -0.000239  -0.000028   0.001078   0.000103
    21  C   -0.002014  -0.000238   0.000095  -0.000373  -0.000878   0.000003
    22  H   -0.000375  -0.000028  -0.000373  -0.000008  -0.000227  -0.000015
    23  C   -0.003767   0.001076  -0.000878  -0.000226  -0.001077  -0.000041
    24  H    0.000441   0.000103   0.000002  -0.000015  -0.000041   0.000001
               7          8          9         10         11         12
     1  C   -0.162793  -0.001745   0.110654   0.015555   0.247348  -0.075872
     2  H   -0.001828   0.000037   0.015399  -0.000322  -0.075528  -0.013903
     3  C    0.112610   0.015489  -0.161441  -0.001868   0.112703   0.015601
     4  H    0.015364  -0.000315  -0.001801   0.000036   0.015392  -0.000316
     5  C    0.248643  -0.075738   0.110243   0.015542  -0.162366  -0.001770
     6  H   -0.076191  -0.013895   0.015484  -0.000322  -0.001884   0.000037
     7  C    5.116133   0.438473   0.250446  -0.075245   0.109381   0.015447
     8  H    0.438473   0.732242  -0.075246  -0.013863   0.015392  -0.000326
     9  C    0.250446  -0.075246   5.109084   0.438194   0.250871  -0.075604
    10  H   -0.075245  -0.013863   0.438194   0.731388  -0.075276  -0.013897
    11  C    0.109381   0.015392   0.250871  -0.075276   5.116262   0.438769
    12  H    0.015447  -0.000326  -0.075604  -0.013897   0.438769   0.732565
    13  C   -0.000108   0.000000  -0.000019   0.000001  -0.000364   0.000002
    14  H    0.000000   0.000000  -0.000001  -0.000000  -0.000014  -0.000001
    15  C   -0.000019  -0.000001   0.000021   0.000000   0.000023  -0.000002
    16  H    0.000001  -0.000000   0.000000   0.000000   0.000002  -0.000000
    17  C   -0.000364  -0.000014   0.000023   0.000002  -0.000202   0.000000
    18  H    0.000002  -0.000001  -0.000002  -0.000000   0.000000   0.000000
    19  C    0.000567   0.000039  -0.000167  -0.000018   0.000340  -0.000018
    20  H    0.000787   0.000100   0.000073  -0.000002  -0.000048  -0.000001
    21  C    0.000246  -0.000048  -0.001735  -0.000037  -0.000176  -0.000044
    22  H    0.000446   0.000010   0.002632   0.000108   0.000858   0.000034
    23  C    0.000353  -0.000006  -0.000379  -0.000026   0.001551   0.000070
    24  H   -0.000010  -0.000000   0.000033  -0.000001   0.000612   0.000116
              13         14         15         16         17         18
     1  C    0.000569   0.000039  -0.000167  -0.000018   0.000339  -0.000018
     2  H    0.000784   0.000099   0.000073  -0.000002  -0.000048  -0.000001
     3  C    0.000251  -0.000047  -0.001728  -0.000036  -0.000170  -0.000044
     4  H    0.000445   0.000010   0.002620   0.000107   0.000856   0.000034
     5  C    0.000352  -0.000006  -0.000378  -0.000026   0.001551   0.000070
     6  H   -0.000010  -0.000000   0.000033  -0.000001   0.000611   0.000115
     7  C   -0.000108   0.000000  -0.000019   0.000001  -0.000364   0.000002
     8  H    0.000000   0.000000  -0.000001  -0.000000  -0.000014  -0.000001
     9  C   -0.000019  -0.000001   0.000021   0.000000   0.000023  -0.000002
    10  H    0.000001  -0.000000   0.000000   0.000000   0.000002  -0.000000
    11  C   -0.000364  -0.000014   0.000023   0.000002  -0.000202   0.000000
    12  H    0.000002  -0.000001  -0.000002  -0.000000   0.000000   0.000000
    13  C    5.116124   0.438472   0.250453  -0.075245   0.109379   0.015447
    14  H    0.438472   0.732247  -0.075245  -0.013863   0.015391  -0.000326
    15  C    0.250453  -0.075245   5.109068   0.438192   0.250880  -0.075602
    16  H   -0.075245  -0.013863   0.438192   0.731392  -0.075275  -0.013897
    17  C    0.109379   0.015391   0.250880  -0.075275   5.116261   0.438768
    18  H    0.015447  -0.000326  -0.075602  -0.013897   0.438768   0.732571
    19  C   -0.162793  -0.001745   0.110654   0.015555   0.247344  -0.075874
    20  H   -0.001828   0.000037   0.015399  -0.000322  -0.075529  -0.013902
    21  C    0.112609   0.015489  -0.161441  -0.001868   0.112703   0.015602
    22  H    0.015363  -0.000315  -0.001801   0.000036   0.015392  -0.000316
    23  C    0.248647  -0.075739   0.110240   0.015541  -0.162365  -0.001770
    24  H   -0.076192  -0.013895   0.015484  -0.000322  -0.001884   0.000037
              19         20         21         22         23         24
     1  C   -0.000954  -0.000018  -0.002014  -0.000375  -0.003767   0.000441
     2  H   -0.000018   0.000001  -0.000238  -0.000028   0.001076   0.000103
     3  C   -0.002015  -0.000239   0.000095  -0.000373  -0.000878   0.000002
     4  H   -0.000373  -0.000028  -0.000373  -0.000008  -0.000226  -0.000015
     5  C   -0.003769   0.001078  -0.000878  -0.000227  -0.001077  -0.000041
     6  H    0.000441   0.000103   0.000003  -0.000015  -0.000041   0.000001
     7  C    0.000567   0.000787   0.000246   0.000446   0.000353  -0.000010
     8  H    0.000039   0.000100  -0.000048   0.000010  -0.000006  -0.000000
     9  C   -0.000167   0.000073  -0.001735   0.002632  -0.000379   0.000033
    10  H   -0.000018  -0.000002  -0.000037   0.000108  -0.000026  -0.000001
    11  C    0.000340  -0.000048  -0.000176   0.000858   0.001551   0.000612
    12  H   -0.000018  -0.000001  -0.000044   0.000034   0.000070   0.000116
    13  C   -0.162793  -0.001828   0.112609   0.015363   0.248647  -0.076192
    14  H   -0.001745   0.000037   0.015489  -0.000315  -0.075739  -0.013895
    15  C    0.110654   0.015399  -0.161441  -0.001801   0.110240   0.015484
    16  H    0.015555  -0.000322  -0.001868   0.000036   0.015541  -0.000322
    17  C    0.247344  -0.075529   0.112703   0.015392  -0.162365  -0.001884
    18  H   -0.075874  -0.013902   0.015602  -0.000316  -0.001770   0.000037
    19  C    5.089217   0.436754   0.255109  -0.073407   0.112263   0.015813
    20  H    0.436754   0.730783  -0.073466  -0.013965   0.015616  -0.000331
    21  C    0.255109  -0.073466   5.087412   0.436959   0.253672  -0.074583
    22  H   -0.073407  -0.013965   0.436959   0.725173  -0.073866  -0.013995
    23  C    0.112263   0.015616   0.253672  -0.073866   5.092094   0.438232
    24  H    0.015813  -0.000331  -0.074583  -0.013995   0.438232   0.731702
 Mulliken charges:
               1
     1  C    0.037054
     2  H   -0.021043
     3  C    0.026989
     4  H   -0.018318
     5  C    0.030798
     6  H   -0.021299
     7  C    0.007659
     8  H   -0.020586
     9  C    0.013238
    10  H   -0.019948
    11  C    0.006356
    12  H   -0.020889
    13  C    0.007659
    14  H   -0.020589
    15  C    0.013244
    16  H   -0.019951
    17  C    0.006350
    18  H   -0.020893
    19  C    0.037059
    20  H   -0.021051
    21  C    0.027001
    22  H   -0.018321
    23  C    0.030785
    24  H   -0.021306
 Sum of Mulliken charges =  -0.00000
 Mulliken charges with hydrogens summed into heavy atoms:
               1
     1  C    0.016011
     3  C    0.008671
     5  C    0.009500
     7  C   -0.012927
     9  C   -0.006710
    11  C   -0.014532
    13  C   -0.012930
    15  C   -0.006707
    17  C   -0.014543
    19  C    0.016008
    21  C    0.008680
    23  C    0.009480
 Electronic spatial extent (au):  <R**2>=           1991.5713
 Charge=             -0.0000 electrons
 Dipole moment (field-independent basis, Debye):
    X=              0.0003    Y=              0.0000    Z=              0.0002  Tot=              0.0003
 Quadrupole moment (field-independent basis, Debye-Ang):
   XX=            -74.9726   YY=            -64.8571   ZZ=            -69.3552
   XY=              0.0023   XZ=             -6.3680   YZ=              0.0004
 Traceless Quadrupole moment (field-independent basis, Debye-Ang):
   XX=             -5.2443   YY=              4.8712   ZZ=              0.3731
   XY=              0.0023   XZ=             -6.3680   YZ=              0.0004
 Octapole moment (field-independent basis, Debye-Ang**2):
  XXX=             -0.0178  YYY=              0.0001  ZZZ=              0.0046  XYY=              0.0008
  XXY=              0.0007  XXZ=              0.0035  XZZ=              0.0078  YZZ=              0.0001
  YYZ=              0.0005  XYZ=              0.0003
 Hexadecapole moment (field-independent basis, Debye-Ang**3):
 XXXX=          -1807.5929 YYYY=           -559.0232 ZZZZ=           -465.6921 XXXY=             -0.0010
 XXXZ=            -80.0416 YYYX=              0.0011 YYYZ=              0.0450 ZZZX=            -24.1666
 ZZZY=             -0.0280 XXYY=           -371.1759 XXZZ=           -365.9806 YYZZ=           -172.2613
 XXYZ=             -0.0047 YYXZ=             -9.9760 ZZXY=              0.0297
 N-N= 6.262801913588D+02 E-N=-2.325488914438D+03  KE= 4.586789488704D+02
 Leave Link  601 at Thu Jun 16 14:46:54 2022, MaxMem=   104857600 cpu:               0.3 elap:               0.1
 (Enter /apps/software/g16/l9999.exe)
 Electronic transition elements 
                 1             2             3             4             5 
      1  -0.464028D+03 -0.464027D+03 -0.463994D+03 -0.463993D+03 -0.463992D+03
      2   0.000000D+00  0.000000D+00  0.000000D+00  0.000000D+00  0.000000D+00
      3   0.000000D+00  0.000000D+00  0.000000D+00  0.000000D+00  0.000000D+00
      4   0.000000D+00  0.000000D+00  0.000000D+00  0.000000D+00  0.000000D+00
      5   0.000000D+00  0.000000D+00  0.000000D+00  0.000000D+00  0.000000D+00
      6   0.000000D+00  0.000000D+00  0.000000D+00  0.000000D+00  0.000000D+00
      7   0.000000D+00  0.000000D+00  0.000000D+00  0.000000D+00  0.000000D+00
      8   0.000000D+00  0.000000D+00  0.000000D+00  0.000000D+00  0.000000D+00
      9   0.000000D+00  0.000000D+00  0.000000D+00  0.000000D+00  0.000000D+00
     10   0.000000D+00  0.000000D+00  0.000000D+00  0.000000D+00  0.000000D+00
     11   0.000000D+00  0.000000D+00  0.000000D+00  0.000000D+00  0.000000D+00
     12   0.000000D+00  0.000000D+00  0.000000D+00  0.000000D+00  0.000000D+00
     13   0.000000D+00  0.000000D+00  0.000000D+00  0.000000D+00  0.000000D+00
     14   0.000000D+00  0.000000D+00  0.000000D+00  0.000000D+00  0.000000D+00
     15   0.000000D+00  0.000000D+00  0.000000D+00  0.000000D+00  0.000000D+00
     16   0.000000D+00  0.000000D+00  0.000000D+00  0.000000D+00  0.000000D+00
                 6             7             8             9            10 
      1  -0.463992D+03 -0.463979D+03 -0.463977D+03 -0.463948D+03 -0.463947D+03
      2   0.000000D+00  0.000000D+00  0.000000D+00  0.000000D+00  0.000000D+00
      3   0.000000D+00  0.000000D+00  0.000000D+00  0.000000D+00  0.000000D+00
      4   0.000000D+00  0.000000D+00  0.000000D+00  0.000000D+00  0.000000D+00
      5   0.000000D+00  0.000000D+00  0.000000D+00  0.000000D+00  0.000000D+00
      6   0.000000D+00  0.000000D+00  0.000000D+00  0.000000D+00  0.000000D+00
      7   0.000000D+00  0.000000D+00  0.000000D+00  0.000000D+00  0.000000D+00
      8   0.000000D+00  0.000000D+00  0.000000D+00  0.000000D+00  0.000000D+00
      9   0.000000D+00  0.000000D+00  0.000000D+00  0.000000D+00  0.000000D+00
     10   0.000000D+00  0.000000D+00  0.000000D+00  0.000000D+00  0.000000D+00
     11   0.000000D+00  0.000000D+00  0.000000D+00  0.000000D+00  0.000000D+00
     12   0.000000D+00  0.000000D+00  0.000000D+00  0.000000D+00  0.000000D+00
     13   0.000000D+00  0.000000D+00  0.000000D+00  0.000000D+00  0.000000D+00
     14   0.000000D+00  0.000000D+00  0.000000D+00  0.000000D+00  0.000000D+00
     15   0.000000D+00  0.000000D+00  0.000000D+00  0.000000D+00  0.000000D+00
     16   0.000000D+00  0.000000D+00  0.000000D+00  0.000000D+00  0.000000D+00
 1\1\GINC-CNODE15\SP\RB3LYP TD-FC\def2SVP\C12H12\WANGRU\16-Jun-2022\0\\
 #p TD=(Triplet,Nstates=10) B3LYP/def2SVP\\Benzene_dimer TDDFT\\0,1\C,0
 ,0.2065590093,1.1240187533,-1.6978326934\H,0,0.8568370099,1.997572019,
 -1.6186682519\C,0,0.7532136995,-0.1593708336,-1.6316373187\H,0,1.82816
 06699,-0.2884499815,-1.4939996025\C,0,-0.0798911558,-1.2775659056,-1.7
 16091167\H,0,0.3473070989,-2.2806256644,-1.6524559822\C,0,-1.459601638
 8,-1.1131600178,-1.8656891704\H,0,-2.1108113322,-1.9881492082,-1.92684
 45483\C,0,-2.00691957,0.1717869057,-1.9304047963\H,0,-3.0858273516,0.3
 013358515,-2.0432200881\C,0,-1.173091105,1.2905893877,-1.8474943341\H,
 0,-1.6006322236,2.2948592857,-1.8929730208\C,0,1.4595291291,1.11317667
 49,1.8661683808\H,0,2.1106808921,1.9881822229,1.9277072401\C,0,2.00683
 92934,-0.1717600632,1.9311538371\H,0,3.0856875039,-0.3012905933,2.0445
 585047\C,0,1.1730819232,-1.2905814504,1.8477700519\H,0,1.6006179513,-2
 .2948434556,1.8934716881\C,0,-0.2064883676,-1.1240348161,1.6973581446\
 H,0,-0.8567155298,-1.9975903383,1.6178050791\C,0,-0.753134427,0.159343
 4941,1.6308946491\H,0,-1.8280024197,0.2883981001,1.4926359287\C,0,0.07
 9896814,1.2775557671,1.7158229239\H,0,-0.3472958533,2.2806038462,1.651
 9645356\\Version=ES64L-G16RevA.03\State=1-A\HF=-464.1656681\RMSD=6.993
 e-09\PG=C01 [X(C12H12)]\\@


 THE PROBLEM WITH THE LADDER OF SUCCESS IS YOU CAN'T
 CLIMB IT WHILE YOU'RE TWIDDLING YOUR THUMBS.
 Job cpu time:       0 days  0 hours 19 minutes  9.3 seconds.
 Elapsed time:       0 days  0 hours  2 minutes 29.1 seconds.
 File lengths (MBytes):  RWF=    413 Int=      0 D2E=      0 Chk=     22 Scr=      1
 Normal termination of Gaussian 16 at Thu Jun 16 14:46:54 2022.

Sender: Unischeduler System <wangru@mgt01>
Subject: Job 141670: <#!/bin/bash
#BSUB -J intel
#BSUB -o 002.out
#BSUB -n 8
#BSUB -q cqueue
#BSUB -R span[hosts=1]
export g16root=/apps/software
source /apps/software/g16/bsd/g16.profile
export GAUSS_SCRDIR=/scratch
/apps/software/g16/g16 < 002.inp > 002.out> Done

Job <#!/bin/bash
#BSUB -J intel
#BSUB -o 002.out
#BSUB -n 8
#BSUB -q cqueue
#BSUB -R span[hosts=1]
export g16root=/apps/software
source /apps/software/g16/bsd/g16.profile
export GAUSS_SCRDIR=/scratch
/apps/software/g16/g16 < 002.inp > 002.out> was submitted from host <mgt01> by user <wangru>.
Job was executed on host(s) <8*cnode15>, in queue <cqueue>, as user <wangru>.
</apps/users/wangru> was used as the home directory.
</apps/users/wangru/QM/homework/exam/3-task/2-TDDFT-gaussian> was used as the working directory.
Started at 2022-06-16 14:44:22
Results reported at 2022-06-16 14:46:54

Your job looked like:

------------------------------------------------------------
# User input
#!/bin/bash
#BSUB -J intel
#BSUB -o 002.out
#BSUB -n 8
#BSUB -q cqueue
#BSUB -R span[hosts=1]
export g16root=/apps/software
source /apps/software/g16/bsd/g16.profile
export GAUSS_SCRDIR=/scratch
/apps/software/g16/g16 < 002.inp > 002.out
------------------------------------------------------------

Successfully completed.

Resource usage summary:

    CPU time   :         1116.17 sec.
    Max Memory :               778 MB
    Max Processes  :               5


The output (if any) follows:

