
                                        *****************
                                        * O   R   C   A *
                                        *****************

                                            #,                                       
                                            ###                                      
                                            ####                                     
                                            #####                                    
                                            ######                                   
                                           ########,                                 
                                     ,,################,,,,,                         
                               ,,#################################,,                 
                          ,,##########################################,,             
                       ,#########################################, ''#####,          
                    ,#############################################,,   '####,        
                  ,##################################################,,,,####,       
                ,###########''''           ''''###############################       
              ,#####''   ,,,,##########,,,,          '''####'''          '####       
            ,##' ,,,,###########################,,,                        '##       
           ' ,,###''''                  '''############,,,                           
         ,,##''                                '''############,,,,        ,,,,,,###''
      ,#''                                            '''#######################'''  
     '                                                          ''''####''''         
             ,#######,   #######,   ,#######,      ##                                
            ,#'     '#,  ##    ##  ,#'     '#,    #''#        ######   ,####,        
            ##       ##  ##   ,#'  ##            #'  '#       #        #'  '#        
            ##       ##  #######   ##           ,######,      #####,   #    #        
            '#,     ,#'  ##    ##  '#,     ,#' ,#      #,         ##   #,  ,#        
             '#######'   ##     ##  '#######'  #'      '#     #####' # '####'        



                  #######################################################
                  #                        -***-                        #
                  #          Department of theory and spectroscopy      #
                  #    Directorship and core code : Frank Neese         #
                  #        Max Planck Institute fuer Kohlenforschung    #
                  #                Kaiser Wilhelm Platz 1               #
                  #                 D-45470 Muelheim/Ruhr               #
                  #                      Germany                        #
                  #                                                     #
                  #                  All rights reserved                #
                  #                        -***-                        #
                  #######################################################


                         Program Version 5.0.0 -  RELEASE  -
                                (SVN: $Rev: 19529$)
                ($Date: 2021-06-28 11:36:33 +0200 (Mo, 28 Jun 2021) $)


 With contributions from (in alphabetic order):
   Daniel Aravena         : Magnetic Suceptibility
   Michael Atanasov       : Ab Initio Ligand Field Theory (pilot matlab implementation)
   Alexander A. Auer      : GIAO ZORA, VPT2 properties, NMR spectrum
   Ute Becker             : Parallelization
   Giovanni Bistoni       : ED, misc. LED, open-shell LED, HFLD
   Martin Brehm           : Molecular dynamics
   Dmytro Bykov           : SCF Hessian
   Vijay G. Chilkuri      : MRCI spin determinant printing, contributions to CSF-ICE
   Dipayan Datta          : RHF DLPNO-CCSD density
   Achintya Kumar Dutta   : EOM-CC, STEOM-CC
   Dmitry Ganyushin       : Spin-Orbit,Spin-Spin,Magnetic field MRCI
   Miquel Garcia          : C-PCM Hessian, Gaussian charge scheme
   Yang Guo               : DLPNO-NEVPT2, F12-NEVPT2, CIM, IAO-localization
   Andreas Hansen         : Spin unrestricted coupled pair/coupled cluster methods
   Benjamin Helmich-Paris : MC-RPA, TRAH-SCF, COSX integrals
   Lee Huntington         : MR-EOM, pCC
   Robert Izsak           : Overlap fitted RIJCOSX, COSX-SCS-MP3, EOM
   Marcus Kettner         : VPT2
   Christian Kollmar      : KDIIS, OOCD, Brueckner-CCSD(T), CCSD density, CASPT2, CASPT2-K
   Simone Kossmann        : Meta GGA functionals, TD-DFT gradient, OOMP2, MP2 Hessian
   Martin Krupicka        : Initial AUTO-CI
   Lucas Lang             : DCDCAS
   Marvin Lechner         : AUTO-CI (C++ implementation), FIC-MRCC
   Dagmar Lenk            : GEPOL surface, SMD
   Dimitrios Liakos       : Extrapolation schemes; Compound Job, initial MDCI parallelization
   Dimitrios Manganas     : Further ROCIS development; embedding schemes
   Dimitrios Pantazis     : SARC Basis sets
   Anastasios Papadopoulos: AUTO-CI, single reference methods and gradients
   Taras Petrenko         : DFT Hessian,TD-DFT gradient, ASA, ECA, R-Raman, ABS, FL, XAS/XES, NRVS
   Peter Pinski           : DLPNO-MP2, DLPNO-MP2 Gradient
   Christoph Reimann      : Effective Core Potentials
   Marius Retegan         : Local ZFS, SOC
   Christoph Riplinger    : Optimizer, TS searches, QM/MM, DLPNO-CCSD(T), (RO)-DLPNO pert. Triples
   Tobias Risthaus        : Range-separated hybrids, TD-DFT gradient, RPA, STAB
   Michael Roemelt        : Original ROCIS implementation
   Masaaki Saitow         : Open-shell DLPNO-CCSD energy and density
   Barbara Sandhoefer     : DKH picture change effects
   Avijit Sen             : IP-ROCIS
   Kantharuban Sivalingam : CASSCF convergence, NEVPT2, FIC-MRCI
   Bernardo de Souza      : ESD, SOC TD-DFT
   Georgi Stoychev        : AutoAux, RI-MP2 NMR
   Willem Van den Heuvel  : Paramagnetic NMR
   Boris Wezisla          : Elementary symmetry handling
   Frank Wennmohs         : Technical directorship


 We gratefully acknowledge several colleagues who have allowed us to
 interface, adapt or use parts of their codes:
   Stefan Grimme, W. Hujo, H. Kruse, P. Pracht,  : VdW corrections, initial TS optimization,
                  C. Bannwarth, S. Ehlert          DFT functionals, gCP, sTDA/sTD-DF
   Ed Valeev, F. Pavosevic, A. Kumar             : LibInt (2-el integral package), F12 methods
   Garnet Chan, S. Sharma, J. Yang, R. Olivares  : DMRG
   Ulf Ekstrom                                   : XCFun DFT Library
   Mihaly Kallay                                 : mrcc  (arbitrary order and MRCC methods)
   Jiri Pittner, Ondrej Demel                    : Mk-CCSD
   Frank Weinhold                                : gennbo (NPA and NBO analysis)
   Christopher J. Cramer and Donald G. Truhlar   : smd solvation model
   Lars Goerigk                                  : TD-DFT with DH, B97 family of functionals
   V. Asgeirsson, H. Jonsson                     : NEB implementation
   FAccTs GmbH                                   : IRC, NEB, NEB-TS, DLPNO-Multilevel, CI-OPT
                                                   MM, QMMM, 2- and 3-layer-ONIOM, Crystal-QMMM,
                                                   LR-CPCM, SF, NACMEs, symmetry and pop. for TD-DFT,
                                                   nearIR, NL-DFT gradient (VV10), updates on ESD,
                                                   ML-optimized integration grids
   S Lehtola, MJT Oliveira, MAL Marques          : LibXC Library
   Liviu Ungur et al                             : ANISO software


 Your calculation uses the libint2 library for the computation of 2-el integrals
 For citations please refer to: http://libint.valeyev.net

 Your ORCA version has been built with support for libXC version: 5.1.0
 For citations please refer to: https://tddft.org/programs/libxc/

 This ORCA versions uses:
   CBLAS   interface :  Fast vector & matrix operations
   LAPACKE interface :  Fast linear algebra routines
   SCALAPACK package :  Parallel linear algebra routines
   Shared memory     :  Shared parallel matrices
   BLAS/LAPACK       :  OpenBLAS 0.3.15  USE64BITINT DYNAMIC_ARCH NO_AFFINITY SkylakeX SINGLE_THREADED
        Core in use  :  SkylakeX
   Copyright (c) 2011-2014, The OpenBLAS Project




***************************************
The coordinates will be read from file: benzene_dimer.xyz
***************************************


Your calculation utilizes the atom-pairwise dispersion correction
with the Becke-Johnson damping scheme (D3BJ)
Cite in your paper:
S.Grimme, S.Ehrlich, L.Goerigk, J Comput Chem, (2011), 32, 1456–1465 
S.Grimme, J.Antony, S.Ehrlich and H.Krieg, J.Chem.Phys., 132, (2010), 154104 
   

================================================================================

----- Orbital basis set information -----
Your calculation utilizes the basis: cc-pVDZ 
       H, B-Ne : Obtained from the ccRepo (grant-hill.group.shef.ac.uk/ccrepo) Feb. 2017
                 T. H. Dunning, Jr., J. Chem. Phys. 90, 1007 (1989)
            He : Obtained from the ccRepo (grant-hill.group.shef.ac.uk/ccrepo) Feb. 2017
                 D. E. Woon, T. H. Dunning, Jr., J. Chem. Phys. 100, 2975 (1994)
  Li-Be, Na-Mg : Obtained from the ccRepo (grant-hill.group.shef.ac.uk/ccrepo) Feb. 2017
                 B. P. Prascher, D. E. Woon, K. A. Peterson, T. H. Dunning, Jr., A. K. Wilson, Theor. Chem. Acc. 128, 69 (2011)
         Al-Ar : Obtained from the ccRepo (grant-hill.group.shef.ac.uk/ccrepo) Feb. 2017
                 D. E. Woon, T. H. Dunning, Jr., J. Chem. Phys. 98, 1358 (1993)
            Ca : Obtained from the Peterson Research Group Website (tyr0.chem.wsu.edu/~kipeters) Feb. 2017
                 J. Koput, K. A. Peterson, J. Phys. Chem. 106, 9595 (2002)
         Sc-Zn : Obtained from the ccRepo (grant-hill.group.shef.ac.uk/ccrepo) Feb. 2017
                 N. B. Balabanov, K. A. Peterson, J. Chem. Phys. 123, 064107 (2005)
                 N. B. Balabanov, K. A. Peterson, J. Chem. Phys. 125, 074110 (2006)
         Ga-Kr : Obtained from the ccRepo (grant-hill.group.shef.ac.uk/ccrepo) Feb. 2017
                 A. K. Wilson, D. E. Woon, K. A. Peterson, T. H. Dunning, Jr., J. Chem. Phys. 110, 7667 (1999)

----- AuxJ basis set information -----
Your calculation utilizes the auxiliary basis: def2/J
   F. Weigend, Phys. Chem. Chem. Phys. 8, 1057 (2006).

================================================================================
                                        WARNINGS
                       Please study these warnings very carefully!
================================================================================


WARNING: Geometry Optimization
  ===> : Switching off AutoStart
         For restart on a previous wavefunction, please use MOREAD

INFO   : the flag for use of the SHARK integral package has been found!

================================================================================
                                       INPUT FILE
================================================================================
NAME = /scratch/opt_608/opt.inp
|  1> ! RKS B3LYP/G cc-pvdz D3 NoUseSym Opt pal8
|  2> 
|  3> *xyzfile 0 1 benzene_dimer.xyz
|  4> 
|  5> 
|  6> 
|  7> 
|  8>                          ****END OF INPUT****
================================================================================

                       *****************************
                       * Geometry Optimization Run *
                       *****************************

Geometry optimization settings:
Update method            Update   .... BFGS
Choice of coordinates    CoordSys .... Z-matrix Internals
Initial Hessian          InHess   .... Almoef's Model

Convergence Tolerances:
Energy Change            TolE     ....  5.0000e-06 Eh
Max. Gradient            TolMAXG  ....  3.0000e-04 Eh/bohr
RMS Gradient             TolRMSG  ....  1.0000e-04 Eh/bohr
Max. Displacement        TolMAXD  ....  4.0000e-03 bohr
RMS Displacement         TolRMSD  ....  2.0000e-03 bohr
Strict Convergence                ....  False
------------------------------------------------------------------------------
                        ORCA OPTIMIZATION COORDINATE SETUP
------------------------------------------------------------------------------

The optimization will be done in new redundant internal coordinates
Making redundant internal coordinates   ...  (new redundants) done
Evaluating the initial hessian          ...  (Almloef) done
Evaluating the coordinates              ...  done
Calculating the B-matrix                .... done
Calculating the G-matrix                .... done
Diagonalizing the G-matrix              .... done
The first mode is                       .... 1772
The number of degrees of freedom        ....   66

    -----------------------------------------------------------------
                    Redundant Internal Coordinates


    -----------------------------------------------------------------
         Definition                    Initial Value    Approx d2E/dq
    -----------------------------------------------------------------
      1. B(H   1,C   0)                  1.0815         0.371475   
      2. B(C   2,C   0)                  1.3931         0.617695   
      3. B(H   3,C   2)                  1.0813         0.371774   
      4. B(C   4,C   2)                  1.3934         0.616981   
      5. B(H   5,C   4)                  1.0816         0.371317   
      6. B(C   6,C   4)                  1.3936         0.616578   
      7. B(H   7,C   6)                  1.0818         0.371177   
      8. B(C   8,C   6)                  1.3939         0.615802   
      9. B(H   9,C   8)                  1.0817         0.371183   
     10. B(C  10,C   8)                  1.3937         0.616382   
     11. B(C  10,C   0)                  1.3939         0.616007   
     12. B(H  11,C  10)                  1.0818         0.371179   
     13. B(C  12,C   2)                  3.8733         0.000068   
     14. B(C  12,H   1)                  3.7417         0.000021   
     15. B(C  12,C   0)                  3.8661         0.000070   
     16. B(C  12,H   3)                  3.7498         0.000021   
     17. B(H  13,H   3)                  4.2021         0.000001   
     18. B(H  13,C  12)                  1.0817         0.371193   
     19. B(H  13,H   1)                  3.8628         0.000003   
     20. B(H  13,C   2)                  4.4463         0.000002   
     21. B(H  13,C   0)                  4.2670         0.000003   
     22. B(C  14,C   2)                  3.8642         0.000071   
     23. B(C  14,H   3)                  3.5332         0.000046   
     24. B(C  14,C   4)                  4.4229         0.000009   
     25. B(C  14,C   0)                  4.3313         0.000013   
     26. B(C  14,C  12)                  1.3940         0.615714   
     27. B(C  14,H   5)                  4.5554         0.000001   
     28. B(C  14,H   1)                  4.3953         0.000002   
     29. B(H  15,C  14)                  1.0818         0.371171   
     30. B(H  15,H   3)                  3.8555         0.000003   
     31. B(H  15,C   2)                  4.4331         0.000002   
     32. B(C  16,C   0)                  4.4692         0.000008   
     33. B(C  16,H   3)                  3.6422         0.000031   
     34. B(C  16,H   5)                  3.8259         0.000016   
     35. B(C  16,C  14)                  1.3937         0.616369   
     36. B(C  16,C   4)                  3.8669         0.000070   
     37. B(C  16,C   2)                  3.7691         0.000100   
     38. B(H  17,C   2)                  4.2836         0.000003   
     39. B(H  17,H   3)                  4.0298         0.000001   
     40. B(H  17,H   5)                  3.8644         0.000003   
     41. B(H  17,C  16)                  1.0818         0.371170   
     42. B(H  17,C   4)                  4.1939         0.000004   
     43. B(C  18,H   3)                  3.9490         0.000010   
     44. B(C  18,C   0)                  4.1646         0.000023   
     45. B(C  18,C  16)                  1.3939         0.615988   
     46. B(C  18,C   6)                  3.8652         0.000070   
     47. B(C  18,C  10)                  4.4686         0.000008   
     48. B(C  18,C   8)                  4.3303         0.000013   
     49. B(C  18,H   7)                  4.2659         0.000003   
     50. B(C  18,C   2)                  3.6771         0.000140   
     51. B(C  18,H   5)                  3.6769         0.000027   
     52. B(C  18,C   4)                  3.5106         0.000258   
     53. B(H  19,H   3)                  4.5101         0.000000   
     54. B(H  19,C   2)                  4.1347         0.000005   
     55. B(H  19,C   8)                  4.3939         0.000002   
     56. B(H  19,H   7)                  3.8612         0.000003   
     57. B(H  19,C  18)                  1.0815         0.371507   
     58. B(H  19,H   5)                  3.5935         0.000007   
     59. B(H  19,C   4)                  3.5896         0.000037   
     60. B(H  19,C   6)                  3.7404         0.000021   
     61. B(C  20,H   3)                  4.1423         0.000005   
     62. B(C  20,C   0)                  3.6768         0.000140   
     63. B(C  20,H  11)                  4.2826         0.000003   
     64. B(C  20,C   2)                  3.6848         0.000136   
     65. B(C  20,H   9)                  4.4314         0.000002   
     66. B(C  20,C   8)                  3.8628         0.000071   
     67. B(C  20,H   7)                  4.4450         0.000002   
     68. B(C  20,C  18)                  1.3931         0.617725   
     69. B(C  20,C   6)                  3.8722         0.000068   
     70. B(C  20,H   5)                  4.3044         0.000003   
     71. B(C  20,H   1)                  4.1349         0.000005   
     72. B(C  20,C   4)                  3.7841         0.000095   
     73. B(C  20,C  10)                  3.7681         0.000100   
     74. B(H  21,C   0)                  3.9482         0.000010   
     75. B(H  21,C   2)                  4.1417         0.000005   
     76. B(H  21,H  11)                  4.0282         0.000001   
     77. B(H  21,C  10)                  3.6406         0.000031   
     78. B(H  21,H   9)                  3.8529         0.000003   
     79. B(H  21,C   8)                  3.5310         0.000046   
     80. B(H  21,H   7)                  4.2002         0.000001   
     81. B(H  21,C  20)                  1.0813         0.371796   
     82. B(H  21,C   6)                  3.7480         0.000021   
     83. B(H  21,H   1)                  4.5097         0.000000   
     84. B(H  21,C   4)                  4.0481         0.000007   
     85. B(C  22,H   3)                  4.0491         0.000007   
     86. B(C  22,C   2)                  3.7845         0.000094   
     87. B(C  22,H  11)                  4.1933         0.000004   
     88. B(C  22,C  10)                  3.8663         0.000070   
     89. B(C  22,C  20)                  1.3934         0.617005   
     90. B(C  22,C  12)                  1.3936         0.616595   
     91. B(C  22,C   8)                  4.4221         0.000009   
     92. B(C  22,H   1)                  3.5903         0.000037   
     93. B(C  22,C   4)                  4.3529         0.000012   
     94. B(C  22,C   0)                  3.5108         0.000258   
     95. B(H  23,C   2)                  4.3046         0.000003   
     96. B(H  23,H  11)                  3.8635         0.000003   
     97. B(H  23,C  10)                  3.8251         0.000016   
     98. B(H  23,C  22)                  1.0816         0.371319   
     99. B(H  23,C   8)                  4.5544         0.000001   
    100. B(H  23,H   1)                  3.5939         0.000007   
    101. B(H  23,C   0)                  3.6768         0.000027   
    102. A(H   1,C   0,C  22)           85.4261         0.134648   
    103. A(C   2,C   0,C  18)           60.2171         0.123386   
    104. A(C  14,C   0,C  16)           18.1362         0.091319   
    105. A(C   2,C   0,C  16)           51.7558         0.115692   
    106. A(C  12,C   0,C  20)           37.2281         0.095599   
    107. A(H   1,C   0,C  20)          107.6275         0.128764   
    108. A(C  10,C   0,C  22)           93.9829         0.148180   
    109. A(C  10,C   0,C  18)           93.3661         0.123365   
    110. A(C  14,C   0,C  18)           32.9413         0.091988   
    111. A(C   2,C   0,C  10)          120.0453         0.433271   
    112. A(H   1,C   0,C  14)           86.2559         0.112075   
    113. A(H   1,C   0,C  12)           75.3400         0.122972   
    114. A(C   2,C   0,C  12)           79.9213         0.133070   
    115. A(H   1,C   0,C  16)          104.3921         0.109576   
    116. A(C  18,C   0,C  20)           19.1964         0.094149   
    117. A(C  10,C   0,C  20)           82.9232         0.140552   
    118. A(C  10,C   0,C  12)          115.0583         0.133043   
    119. A(C  14,C   0,C  22)           33.8462         0.094146   
    120. A(C   2,C   0,C  22)           90.3283         0.148217   
    121. A(C  12,C   0,C  22)           21.0753         0.096576   
    122. A(C  18,C   0,C  22)           35.3561         0.094911   
    123. A(C  12,C   0,C  18)           40.3966         0.093399   
    124. A(C  12,C   0,C  16)           32.6564         0.092415   
    125. A(C  16,C   0,C  20)           32.6725         0.092997   
    126. A(C  20,C   0,C  22)           22.2014         0.097867   
    127. A(C  16,C   0,C  22)           38.5724         0.093588   
    128. A(H   1,C   0,C  18)          115.7366         0.115507   
    129. A(C   2,C   0,C  14)           61.4423         0.118934   
    130. A(C  10,C   0,C  14)          122.6255         0.118915   
    131. A(C  12,C   0,C  14)           18.4790         0.092829   
    132. A(C  10,C   0,C  16)          111.5059         0.115676   
    133. A(C  16,C   0,C  18)           18.1399         0.091664   
    134. A(H   1,C   0,C   2)          119.9249         0.354549   
    135. A(C   2,C   0,C  20)           79.4135         0.140584   
    136. A(H   1,C   0,C  10)          120.0291         0.354385   
    137. A(C  14,C   0,C  20)           39.7023         0.093482   
    138. A(C  14,C   2,C  16)           20.9923         0.095121   
    139. A(C  20,C   2,C  22)           21.4493         0.096016   
    140. A(C   0,C   2,C   4)          119.9474         0.433395   
    141. A(C   0,C   2,C  18)          100.5856         0.140573   
    142. A(C  16,C   2,C  18)           21.5319         0.096152   
    143. A(H   3,C   2,C  18)           96.5317         0.128763   
    144. A(C   0,C   2,C  22)           68.0733         0.136163   
    145. A(C   0,C   2,C  16)          111.3691         0.136773   
    146. A(C   4,C   2,C  14)          104.4587         0.133130   
    147. A(C   4,C   2,C  16)           83.4664         0.136760   
    148. A(C  12,C   2,C  14)           20.7577         0.094613   
    149. A(C  12,C   2,C  16)           36.7909         0.095075   
    150. A(C  12,C   2,C  18)           43.2230         0.095558   
    151. A(H   3,C   2,C  16)           74.9999         0.125833   
    152. A(C  16,C   2,C  20)           37.7735         0.096106   
    153. A(C  14,C   2,C  18)           37.2354         0.095608   
    154. A(H   3,C   2,C  22)           96.3350         0.125363   
    155. A(C  12,C   2,C  20)           37.1515         0.095517   
    156. A(C   0,C   2,C  12)           79.3393         0.132808   
    157. A(C   4,C   2,C  18)           72.1688         0.140559   
    158. A(H   3,C   2,C  14)           64.3458         0.123033   
    159. A(C   0,C   2,C  14)          100.0969         0.133141   
    160. A(C   4,C   2,C  20)           83.2903         0.140230   
    161. A(C  18,C   2,C  22)           37.6940         0.096061   
    162. A(C   4,C   2,C  12)          115.3918         0.132796   
    163. A(H   3,C   2,C  12)           75.4064         0.122776   
    164. A(C   4,C   2,C  22)          104.7396         0.136151   
    165. A(H   3,C   2,C  20)          107.6150         0.128509   
    166. A(C  12,C   2,C  22)           20.9289         0.094998   
    167. A(C  18,C   2,C  20)           21.8157         0.096672   
    168. A(C  14,C   2,C  22)           36.7753         0.095043   
    169. A(C  14,C   2,C  20)           43.2692         0.095566   
    170. A(C   0,C   2,C  20)           78.7699         0.140243   
    171. A(C  16,C   2,C  22)           43.2958         0.095541   
    172. A(H   3,C   2,C   4)          120.0378         0.354528   
    173. A(C   0,C   2,H   3)          120.0121         0.354598   
    174. A(H   5,C   4,C  22)          118.8438         0.111662   
    175. A(C   2,C   4,C  22)           57.2265         0.118393   
    176. A(C  18,C   4,C  22)           33.6155         0.094055   
    177. A(C   2,C   4,C   6)          120.0557         0.433253   
    178. A(H   5,C   4,C   6)          120.0095         0.354415   
    179. A(C   6,C   4,C  16)          115.0204         0.133025   
    180. A(C  20,C   4,C  22)           18.0319         0.093027   
    181. A(C  16,C   4,C  22)           39.0720         0.092759   
    182. A(C  14,C   4,C  22)           31.9191         0.091367   
    183. A(C   6,C   4,C  14)          121.8397         0.116727   
    184. A(C  18,C   4,C  20)           21.6010         0.097112   
    185. A(C  14,C   4,C  20)           38.7440         0.092799   
    186. A(C   6,C   4,C  20)           83.0957         0.136162   
    187. A(H   5,C   4,C  20)          111.7889         0.125367   
    188. A(C   2,C   4,C  20)           75.2584         0.136169   
    189. A(C  16,C   4,C  18)           21.0743         0.096572   
    190. A(C  14,C   4,C  18)           32.9507         0.093769   
    191. A(C   2,C   4,C  18)           85.6306         0.148212   
    192. A(C  14,C   4,C  16)           17.7765         0.092546   
    193. A(C   2,C   4,H   5)          119.9342         0.354454   
    194. A(C  16,C   4,C  20)           36.7658         0.095032   
    195. A(C   6,C   4,C  18)           93.9461         0.148203   
    196. A(H   5,C   4,C  16)           79.7718         0.122948   
    197. A(C   2,C   4,C  16)           75.5555         0.133032   
    198. A(H   5,C   4,C  14)           90.1168         0.110380   
    199. A(C   2,C   4,C  14)           57.7791         0.116731   
    200. A(H   5,C   4,C  18)           90.1880         0.134651   
    201. A(C   6,C   4,C  22)           93.1998         0.118389   
    202. A(C   8,C   6,C  18)           99.9837         0.133073   
    203. A(C   8,C   6,C  20)           79.2389         0.132820   
    204. A(C   4,C   6,C  20)           75.9702         0.132832   
    205. A(H   7,C   6,C  20)          115.4046         0.122796   
    206. A(H   7,C   6,C  18)          104.4581         0.122991   
    207. A(C   4,C   6,C  18)           64.9725         0.133085   
    208. A(C  18,C   6,C  20)           20.7448         0.094614   
    209. A(H   7,C   6,C   8)          119.9914         0.354317   
    210. A(C   4,C   6,C   8)          119.9867         0.433104   
    211. A(C   4,C   6,H   7)          120.0219         0.354392   
    212. A(C   6,C   8,H   9)          120.0146         0.354317   
    213. A(C  18,C   8,C  22)           31.9792         0.091414   
    214. A(C   6,C   8,C  10)          119.9659         0.433080   
    215. A(C  10,C   8,C  20)           75.6720         0.133172   
    216. A(H   9,C   8,C  20)          115.1098         0.123061   
    217. A(C   6,C   8,C  20)           79.9971         0.133162   
    218. A(C  18,C   8,C  20)           18.4644         0.092843   
    219. A(C  10,C   8,C  22)           57.9083         0.116745   
    220. A(H   9,C   8,C  22)          121.8949         0.110394   
    221. A(H   9,C   8,C  10)          120.0190         0.354374   
    222. A(C  20,C   8,C  22)           17.7637         0.092561   
    223. A(C   6,C   8,C  22)           90.3223         0.116739   
    224. A(C  10,C   8,C  18)           86.5536         0.118945   
    225. A(H   9,C   8,C  18)          122.6509         0.112091   
    226. A(C   6,C   8,C  18)           61.5327         0.118939   
    227. A(C   0,C  10,C  18)           68.4911         0.115689   
    228. A(C   0,C  10,C  20)           75.5407         0.136782   
    229. A(H  11,C  10,C  20)          111.3769         0.125849   
    230. A(C   8,C  10,H  11)          119.9889         0.354373   
    231. A(C  20,C  10,C  22)           20.9815         0.095115   
    232. A(C  18,C  10,C  22)           32.6427         0.092416   
    233. A(C   0,C  10,H  11)          120.0123         0.354337   
    234. A(C   8,C  10,C  22)          104.3102         0.133041   
    235. A(C   0,C  10,C  22)           64.9390         0.133035   
    236. A(C  18,C  10,C  20)           16.8752         0.092706   
    237. A(H  11,C  10,C  18)          128.2521         0.109583   
    238. A(H  11,C  10,C  22)          100.0872         0.122960   
    239. A(C   8,C  10,C  20)           83.3287         0.136788   
    240. A(C   0,C  10,C   8)          119.9987         0.433106   
    241. A(C   8,C  10,C  18)           75.3074         0.115693   
    242. A(C  14,C  12,C  22)          119.9854         0.433095   
    243. A(H  13,C  12,C  22)          120.0247         0.354396   
    244. A(C   0,C  12,C   2)           20.7394         0.094604   
    245. A(C   2,C  12,C  22)           75.9442         0.132790   
    246. A(C   2,C  12,C  14)           79.2524         0.132776   
    247. A(C   2,C  12,H  13)          115.4156         0.122764   
    248. A(C   0,C  12,C  22)           64.9469         0.133053   
    249. A(C   0,C  12,C  14)           99.9918         0.133038   
    250. A(C   0,C  12,H  13)          104.4727         0.122966   
    251. A(H  13,C  12,C  14)          119.9899         0.354311   
    252. A(C   0,C  14,C   2)           18.4608         0.092836   
    253. A(C   2,C  14,C  16)           75.6575         0.133120   
    254. A(C   2,C  14,H  15)          115.1313         0.123020   
    255. A(C   2,C  14,C  12)           79.9900         0.133109   
    256. A(C   0,C  14,C  16)           86.5373         0.118919   
    257. A(C   0,C  14,H  15)          122.6718         0.112071   
    258. A(C   0,C  14,C  12)           61.5292         0.118912   
    259. A(H  15,C  14,C  16)          120.0202         0.354371   
    260. A(C  12,C  14,C  16)          119.9651         0.433067   
    261. A(C  12,C  14,H  15)          120.0143         0.354307   
    262. A(C   2,C  14,C   4)           17.7622         0.092554   
    263. A(C   0,C  14,C   4)           31.9722         0.091410   
    264. A(C   4,C  14,C  16)           57.8953         0.116724   
    265. A(C   4,C  14,H  15)          121.9179         0.110378   
    266. A(C   4,C  14,C  12)           90.3125         0.116718   
    267. A(C   0,C  16,C  18)           68.4674         0.115675   
    268. A(C   0,C  16,H  17)          128.2549         0.109572   
    269. A(C   2,C  16,H  17)          111.3798         0.125819   
    270. A(C   2,C  16,C  14)           83.3502         0.136749   
    271. A(C   0,C  16,C  14)           75.3264         0.115679   
    272. A(H  17,C  16,C  18)          120.0133         0.354334   
    273. A(C  14,C  16,C  18)          119.9990         0.433102   
    274. A(C   0,C  16,C   2)           16.8751         0.092702   
    275. A(C  14,C  16,H  17)          119.9876         0.354371   
    276. A(C   2,C  16,C   4)           20.9780         0.095108   
    277. A(C   0,C  16,C   4)           32.6380         0.092413   
    278. A(C   4,C  16,C  18)           64.9102         0.133016   
    279. A(C   4,C  16,H  17)          100.0945         0.122945   
    280. A(C   4,C  16,C  14)          104.3282         0.133022   
    281. A(C   2,C  16,C  18)           75.5139         0.136743   
    282. A(C   4,C  18,C  10)           38.5787         0.093591   
    283. A(C   0,C  18,C  20)           60.2062         0.123386   
    284. A(C   0,C  18,H  19)          115.7154         0.115507   
    285. A(C  10,C  18,C  16)          111.5356         0.115689   
    286. A(C   0,C  18,C  16)           93.3928         0.123364   
    287. A(C   0,C  18,C   2)           19.1973         0.094148   
    288. A(C   2,C  18,C  20)           79.4035         0.140573   
    289. A(C   2,C  18,H  19)          107.6026         0.128756   
    290. A(H  19,C  18,C  20)          119.9268         0.354557   
    291. A(C   6,C  18,C   8)           18.4836         0.092836   
    292. A(C   8,C  18,C  20)           61.4242         0.118960   
    293. A(C   4,C  18,C   8)           33.8558         0.094151   
    294. A(C   2,C  18,C   8)           39.7105         0.093485   
    295. A(C   0,C  18,C   8)           32.9461         0.091991   
    296. A(C   8,C  18,H  19)           86.2376         0.112095   
    297. A(C   8,C  18,C  16)          122.6646         0.118941   
    298. A(C  16,C  18,C  20)          120.0451         0.433273   
    299. A(C  16,C  18,H  19)          120.0274         0.354388   
    300. A(C   6,C  18,C  10)           32.6610         0.092419   
    301. A(C   4,C  18,C   6)           21.0814         0.096583   
    302. A(C   2,C  18,C   6)           37.2327         0.095603   
    303. A(C   0,C  18,C   6)           40.3997         0.093402   
    304. A(C   6,C  18,C  20)           79.9078         0.133104   
    305. A(C   6,C  18,H  19)           75.3157         0.122998   
    306. A(C   6,C  18,C  16)          115.0969         0.133076   
    307. A(C   2,C  18,C  16)           82.9541         0.140541   
    308. A(C   2,C  18,C   4)           22.2006         0.097867   
    309. A(C   0,C  18,C   4)           35.3564         0.094912   
    310. A(C   4,C  18,C  20)           90.3170         0.148228   
    311. A(C   4,C  18,H  19)           85.4021         0.134657   
    312. A(C   4,C  18,C  16)           94.0155         0.148190   
    313. A(C  10,C  18,H  19)          104.3766         0.109587   
    314. A(C  10,C  18,C  20)           51.7384         0.115706   
    315. A(C   2,C  18,C  10)           32.6782         0.092998   
    316. A(C   8,C  18,C  10)           18.1390         0.091323   
    317. A(C   0,C  18,C  10)           18.1428         0.091666   
    318. A(C   2,C  20,C  22)           83.3099         0.140230   
    319. A(C   2,C  20,H  21)          107.5793         0.128509   
    320. A(C   2,C  20,C  18)           78.7808         0.140244   
    321. A(C  18,C  20,H  21)          120.0115         0.354604   
    322. A(C   6,C  20,C   8)           20.7640         0.094625   
    323. A(C   4,C  20,C   8)           36.7849         0.095053   
    324. A(C   2,C  20,C   8)           43.2789         0.095574   
    325. A(C   0,C  20,C   8)           37.2451         0.095618   
    326. A(C   8,C  20,C  22)          104.4823         0.133182   
    327. A(C   8,C  20,H  21)           64.3004         0.123073   
    328. A(C   8,C  20,C  18)          100.1114         0.133194   
    329. A(C   4,C  20,C   6)           20.9341         0.095006   
    330. A(C   2,C  20,C   6)           37.1588         0.095523   
    331. A(C   0,C  20,C   6)           43.2322         0.095566   
    332. A(C   6,C  20,C  22)          115.4197         0.132839   
    333. A(C   6,C  20,H  21)           75.3681         0.122809   
    334. A(C   6,C  20,C  18)           79.3474         0.132850   
    335. A(C   2,C  20,C   4)           21.4513         0.096018   
    336. A(C   0,C  20,C   4)           37.6981         0.096065   
    337. A(C   4,C  20,C  22)          104.7612         0.136169   
    338. A(C   4,C  20,H  21)           96.3020         0.125377   
    339. A(C   4,C  20,C  18)           68.0820         0.136182   
    340. A(C   8,C  20,C  10)           20.9993         0.095134   
    341. A(C   0,C  20,C  22)           72.1876         0.140571   
    342. A(C   0,C  20,H  21)           96.4980         0.128772   
    343. A(C   0,C  20,C  18)          100.5974         0.140584   
    344. A(C   6,C  20,C  10)           36.8012         0.095086   
    345. A(C   4,C  20,C  10)           43.3044         0.095548   
    346. A(C   2,C  20,C  10)           37.7792         0.096112   
    347. A(H  21,C  20,C  22)          120.0376         0.354534   
    348. A(C   0,C  20,C  10)           21.5361         0.096159   
    349. A(C  10,C  20,C  22)           83.4830         0.136799   
    350. A(C  10,C  20,H  21)           74.9621         0.125863   
    351. A(C  10,C  20,C  18)          111.3864         0.136812   
    352. A(C   0,C  20,C   2)           21.8167         0.096673   
    353. A(C  18,C  20,C  22)          119.9480         0.433401   
    354. A(C   4,C  22,C   8)           31.9225         0.091369   
    355. A(C   2,C  22,C   8)           38.7500         0.092800   
    356. A(C   0,C  22,C   8)           32.9594         0.093772   
    357. A(C   8,C  22,H  23)           90.1056         0.110395   
    358. A(C   8,C  22,C  20)           57.7540         0.116751   
    359. A(C   8,C  22,C  12)          121.8769         0.116747   
    360. A(C   2,C  22,C   4)           18.0339         0.093025   
    361. A(C   0,C  22,C   4)           33.6159         0.094054   
    362. A(C   4,C  22,H  23)          118.8307         0.111662   
    363. A(C   4,C  22,C  20)           57.2069         0.118394   
    364. A(C   4,C  22,C  12)           93.2270         0.118389   
    365. A(C   0,C  22,H  23)           90.1736         0.134643   
    366. A(C   0,C  22,C  20)           85.6110         0.148202   
    367. A(C   0,C  22,C  12)           93.9778         0.148193   
    368. A(C  20,C  22,H  23)          119.9353         0.354457   
    369. A(C  12,C  22,H  23)          120.0072         0.354417   
    370. A(C   0,C  22,C   2)           21.5984         0.097107   
    371. A(C   4,C  22,C  10)           39.0734         0.092761   
    372. A(C   2,C  22,C  10)           36.7667         0.095033   
    373. A(C   2,C  22,H  23)          111.7720         0.125353   
    374. A(C   0,C  22,C  10)           21.0780         0.096574   
    375. A(C  10,C  22,H  23)           79.7573         0.122963   
    376. A(C   2,C  22,C  20)           75.2408         0.136152   
    377. A(C  10,C  22,C  20)           75.5354         0.133051   
    378. A(C   8,C  22,C  10)           17.7815         0.092550   
    379. A(C  10,C  22,C  12)          115.0558         0.133044   
    380. A(C   2,C  22,C  12)           83.1269         0.136144   
    381. A(C  12,C  22,C  20)          120.0570         0.433259   
    382. D(C  12,C   2,C   0,C  20)    -37.8615         0.060162   
    383. D(C  14,C   2,C   0,C  20)    -37.8715         0.060162   
    384. D(C  12,C   2,C   0,C  16)    -18.4314         0.060162   
    385. D(C  12,C   2,C   0,C  22)    -18.4197         0.060162   
    386. D(C  20,C   2,C   0,C  10)    -75.3512         0.060162   
    387. D(C  14,C   2,C   0,H   1)     66.4806         0.060162   
    388. D(C  14,C   2,C   0,C  12)     -0.0099         0.060162   
    389. D(C   4,C   2,C   0,C  18)     75.4132         0.060162   
    390. D(C  16,C   2,C   0,C  22)      0.0118         0.060162   
    391. D(H   3,C   2,C   0,H   1)      0.3705         0.060162   
    392. D(H   3,C   2,C   0,C  14)    -66.1101         0.060162   
    393. D(C   4,C   2,C   0,C  22)     94.8539         0.060162   
    394. D(C  22,C   2,C   0,C  16)     -0.0118         0.060162   
    395. D(C  22,C   2,C   0,C  12)     18.4197         0.060162   
    396. D(C  20,C   2,C   0,C  18)      0.0012         0.060162   
    397. D(C   4,C   2,C   0,C  10)      0.0608         0.060162   
    398. D(C  20,C   2,C   0,H   1)    104.3521         0.060162   
    399. D(C  18,C   2,C   0,C  12)     37.8604         0.060162   
    400. D(C  12,C   2,C   0,C  18)    -37.8604         0.060162   
    401. D(H   3,C   2,C   0,C  10)   -179.3328         0.060162   
    402. D(C  12,C   2,C   0,C  10)   -113.2127         0.060162   
    403. D(C  12,C   2,C   0,C  14)      0.0099         0.060162   
    404. D(C  14,C   2,C   0,C  18)    -37.8703         0.060162   
    405. D(C   4,C   2,C   0,C  12)    113.2735         0.060162   
    406. D(C  20,C   2,C   0,C  16)     19.4301         0.060162   
    407. D(C  16,C   2,C   0,C  14)     18.4414         0.060162   
    408. D(C  22,C   2,C   0,C  20)    -19.4418         0.060162   
    409. D(C  16,C   2,C   0,H   1)     84.9220         0.060162   
    410. D(C  20,C   2,C   0,C  14)     37.8715         0.060162   
    411. D(C   4,C   2,C   0,H   1)    179.7641         0.060162   
    412. D(C  14,C   2,C   0,C  10)   -113.2227         0.060162   
    413. D(C  20,C   2,C   0,C  22)     19.4418         0.060162   
    414. D(C  12,C   2,C   0,H   1)     66.4906         0.060162   
    415. D(C  14,C   2,C   0,C  16)    -18.4414         0.060162   
    416. D(C   4,C   2,C   0,C  16)     94.8421         0.060162   
    417. D(C  16,C   2,C   0,C  20)    -19.4301         0.060162   
    418. D(C   4,C   2,C   0,C  14)    113.2835         0.060162   
    419. D(H   3,C   2,C   0,C  16)    -84.5515         0.060162   
    420. D(C  18,C   2,C   0,C  10)    -75.3523         0.060162   
    421. D(C  22,C   2,C   0,H   1)     84.9102         0.060162   
    422. D(C  22,C   2,C   0,C  10)    -94.7930         0.060162   
    423. D(C  20,C   2,C   0,C  12)     37.8615         0.060162   
    424. D(C  18,C   2,C   0,C  14)     37.8703         0.060162   
    425. D(C  18,C   2,C   0,H   1)    104.3509         0.060162   
    426. D(C  18,C   2,C   0,C  16)     19.4289         0.060162   
    427. D(C  18,C   2,C   0,C  20)     -0.0012         0.060162   
    428. D(C  16,C   2,C   0,C  12)     18.4314         0.060162   
    429. D(C  16,C   2,C   0,C  10)    -94.7813         0.060162   
    430. D(C  18,C   2,C   0,C  22)     19.4407         0.060162   
    431. D(H   3,C   2,C   0,C  22)    -84.5398         0.060162   
    432. D(C  22,C   2,C   0,C  14)     18.4296         0.060162   
    433. D(C  16,C   2,C   0,C  18)    -19.4289         0.060162   
    434. D(C   4,C   2,C   0,C  20)     75.4120         0.060162   
    435. D(H   3,C   2,C   0,C  18)   -103.9805         0.060162   
    436. D(H   3,C   2,C   0,C  20)   -103.9816         0.060162   
    437. D(C  14,C   2,C   0,C  22)    -18.4296         0.060162   
    438. D(H   3,C   2,C   0,C  12)    -66.1201         0.060162   
    439. D(C  22,C   2,C   0,C  18)    -19.4407         0.060162   
    440. D(C  20,C   4,C   2,C  16)     38.0364         0.058765   
    441. D(C  20,C   4,C   2,C  12)     19.2310         0.058765   
    442. D(C  20,C   4,C   2,C  22)      0.0020         0.058765   
    443. D(C   6,C   4,C   2,C   0)     -0.1067         0.058765   
    444. D(H   5,C   4,C   2,H   3)     -0.4453         0.058765   
    445. D(H   5,C   4,C   2,C   0)   -179.8387         0.058765   
    446. D(C  22,C   4,C   2,C  20)     -0.0020         0.058765   
    447. D(C  22,C   4,C   2,C  18)     19.2436         0.058765   
    448. D(C  20,C   4,C   2,C  18)     19.2456         0.058765   
    449. D(H   5,C   4,C   2,C  18)    -87.6960         0.058765   
    450. D(C   6,C   4,C   2,C  14)    110.8400         0.058765   
    451. D(C  20,C   4,C   2,C   0)    -72.8972         0.058765   
    452. D(C  14,C   4,C   2,C  16)     -0.0131         0.058765   
    453. D(C  14,C   4,C   2,C  22)    -38.0476         0.058765   
    454. D(H   5,C   4,C   2,C  20)   -106.9416         0.058765   
    455. D(C   6,C   4,C   2,C  16)    110.8269         0.058765   
    456. D(C  18,C   4,C   2,C  20)    -19.2456         0.058765   
    457. D(C  18,C   4,C   2,H   3)     87.2507         0.058765   
    458. D(C   6,C   4,C   2,C  20)     72.7904         0.058765   
    459. D(C  18,C   4,C   2,C   0)    -92.1427         0.058765   
    460. D(C   6,C   4,C   2,C  18)     92.0360         0.058765   
    461. D(C  22,C   4,C   2,C  12)     19.2291         0.058765   
    462. D(C  16,C   4,C   2,C  18)    -18.7909         0.058765   
    463. D(C  14,C   4,C   2,C  18)    -18.8040         0.058765   
    464. D(C  16,C   4,C   2,C  20)    -38.0364         0.058765   
    465. D(C  14,C   4,C   2,H   3)     68.4468         0.058765   
    466. D(C  16,C   4,C   2,C   0)   -110.9336         0.058765   
    467. D(C  16,C   4,C   2,C  22)    -38.0345         0.058765   
    468. D(C  18,C   4,C   2,C  22)    -19.2436         0.058765   
    469. D(C   6,C   4,C   2,C  22)     72.7924         0.058765   
    470. D(C  14,C   4,C   2,C  20)    -38.0495         0.058765   
    471. D(C  16,C   4,C   2,C  12)    -18.8054         0.058765   
    472. D(C  16,C   4,C   2,C  14)      0.0131         0.058765   
    473. D(C   6,C   4,C   2,H   3)    179.2867         0.058765   
    474. D(C   6,C   4,C   2,C  12)     92.0215         0.058765   
    475. D(C  18,C   4,C   2,C  16)     18.7909         0.058765   
    476. D(C  18,C   4,C   2,C  14)     18.8040         0.058765   
    477. D(C  18,C   4,C   2,C  12)     -0.0145         0.058765   
    478. D(C  20,C   4,C   2,C  14)     38.0495         0.058765   
    479. D(C  14,C   4,C   2,C   0)   -110.9467         0.058765   
    480. D(C  22,C   4,C   2,C  14)     38.0476         0.058765   
    481. D(H   5,C   4,C   2,C  22)   -106.9396         0.058765   
    482. D(H   5,C   4,C   2,C  14)    -68.8920         0.058765   
    483. D(C  22,C   4,C   2,H   3)    106.4943         0.058765   
    484. D(C  14,C   4,C   2,C  12)    -18.8185         0.058765   
    485. D(C  22,C   4,C   2,C   0)    -72.8991         0.058765   
    486. D(H   5,C   4,C   2,C  12)    -87.7105         0.058765   
    487. D(C  22,C   4,C   2,C  16)     38.0345         0.058765   
    488. D(C  20,C   4,C   2,H   3)    106.4963         0.058765   
    489. D(C  16,C   4,C   2,H   3)     68.4599         0.058765   
    490. D(H   5,C   4,C   2,C  16)    -68.9051         0.058765   
    491. D(C   8,C   6,C   4,C  20)     68.5069         0.047868   
    492. D(C  18,C   6,C   4,C   2)    -87.2307         0.047868   
    493. D(H   7,C   6,C   4,H   5)     -0.2755         0.047868   
    494. D(C   8,C   6,C   4,C  16)     87.2398         0.047868   
    495. D(C   8,C   6,C   4,C  18)     87.2193         0.047868   
    496. D(C   8,C   6,C   4,C  14)     68.5321         0.047868   
    497. D(H   7,C   6,C   4,C  22)   -126.4515         0.047868   
    498. D(C   8,C   6,C   4,C  22)     53.5445         0.047868   
    499. D(C   8,C   6,C   4,H   5)    179.7205         0.047868   
    500. D(H   7,C   6,C   4,C  18)    -92.7766         0.047868   
    501. D(H   7,C   6,C   4,C   2)    179.9927         0.047868   
    502. D(H   7,C   6,C   4,C  14)   -111.4638         0.047868   
    503. D(H   7,C   6,C   4,C  16)    -92.7562         0.047868   
    504. D(H   7,C   6,C   4,C  20)   -111.4891         0.047868   
    505. D(C  20,C   6,C   4,H   5)    111.2136         0.047868   
    506. D(C  18,C   6,C   4,C  22)    -33.6749         0.047868   
    507. D(C  20,C   6,C   4,C  16)     18.7329         0.047868   
    508. D(C  18,C   6,C   4,H   5)     92.5011         0.047868   
    509. D(C  20,C   6,C   4,C  22)    -14.9624         0.047868   
    510. D(C  18,C   6,C   4,C  20)    -18.7125         0.047868   
    511. D(C   8,C   6,C   4,C   2)     -0.0113         0.047868   
    512. D(C  18,C   6,C   4,C  16)      0.0204         0.047868   
    513. D(C  20,C   6,C   4,C  18)     18.7125         0.047868   
    514. D(C  20,C   6,C   4,C  14)      0.0253         0.047868   
    515. D(C  20,C   6,C   4,C   2)    -68.5182         0.047868   
    516. D(C  18,C   6,C   4,C  14)    -18.6872         0.047868   
    517. D(H   9,C   8,C   6,C  18)   -113.2996         0.044735   
    518. D(H   9,C   8,C   6,H   7)     -0.0772         0.044735   
    519. D(C  10,C   8,C   6,C   4)      0.1753         0.044735   
    520. D(C  18,C   8,C   6,C   4)    -66.7735         0.044735   
    521. D(C  20,C   8,C   6,H   7)    113.2353         0.044735   
    522. D(C  22,C   8,C   6,C   4)    -52.2338         0.044735   
    523. D(C  22,C   8,C   6,H   7)    127.7622         0.044735   
    524. D(C  10,C   8,C   6,C  18)     66.9488         0.044735   
    525. D(C  20,C   8,C   6,C  18)      0.0129         0.044735   
    526. D(C  18,C   8,C   6,H   7)    113.2224         0.044735   
    527. D(C  20,C   8,C   6,C   4)    -66.7606         0.044735   
    528. D(C  22,C   8,C   6,C  20)     14.5268         0.044735   
    529. D(C  22,C   8,C   6,C  18)     14.5398         0.044735   
    530. D(C  18,C   8,C   6,C  20)     -0.0129         0.044735   
    531. D(C  10,C   8,C   6,H   7)   -179.8288         0.044735   
    532. D(H   9,C   8,C   6,C  20)   -113.3125         0.044735   
    533. D(H   9,C   8,C   6,C   4)    179.9268         0.044735   
    534. D(C  10,C   8,C   6,C  20)     66.9359         0.044735   
    535. D(C  22,C  10,C   8,C  20)     -0.0188         0.046350   
    536. D(C  22,C  10,C   8,C   6)    -69.2744         0.046350   
    537. D(C  20,C  10,C   8,C  18)    -15.1240         0.046350   
    538. D(C  18,C  10,C   8,C   6)    -54.1316         0.046350   
    539. D(C  18,C  10,C   8,C  20)     15.1240         0.046350   
    540. D(C  20,C  10,C   8,C   6)    -69.2556         0.046350   
    541. D(H  11,C  10,C   8,C  22)   -110.8489         0.046350   
    542. D(H  11,C  10,C   8,C  20)   -110.8677         0.046350   
    543. D(H  11,C  10,C   8,C   6)    179.8767         0.046350   
    544. D(C   0,C  10,C   8,C  20)     69.0344         0.046350   
    545. D(C   0,C  10,C   8,C  18)     53.9104         0.046350   
    546. D(C  20,C  10,C   8,C  22)      0.0188         0.046350   
    547. D(C   0,C  10,C   8,H   9)   -179.9727         0.046350   
    548. D(C  22,C  10,C   0,C  20)     19.2878         0.050636   
    549. D(C  22,C  10,C   0,C  16)     35.4202         0.050636   
    550. D(C  22,C  10,C   0,C  18)     35.4261         0.050636   
    551. D(C  22,C  10,C   0,C  14)     19.2740         0.050636   
    552. D(C   0,C  10,C   8,C   6)     -0.2211         0.046350   
    553. D(C  20,C  10,C   0,C  18)     16.1383         0.050636   
    554. D(C  20,C  10,C   0,H   1)   -106.3021         0.050636   
    555. D(C  20,C  10,C   0,C  16)     16.1324         0.050636   
    556. D(C  18,C  10,C   0,C   2)     57.2625         0.050636   
    557. D(C  18,C  10,C   0,C  16)     -0.0059         0.050636   
    558. D(C  18,C  10,C   0,C  12)    -35.4463         0.050636   
    559. D(C   8,C  10,C   0,C  18)    -57.1594         0.050636   
    560. D(C   8,C  10,C   0,C  16)    -57.1653         0.050636   
    561. D(H  11,C  10,C   0,C   2)   -179.9948         0.050636   
    562. D(H  11,C  10,C   0,H   1)      0.3023         0.050636   
    563. D(C   8,C  10,C   0,C  14)    -73.3114         0.050636   
    564. D(C   8,C  10,C   0,C  12)    -92.6057         0.050636   
    565. D(H  11,C  10,C   0,C  16)    122.7368         0.050636   
    566. D(C  18,C  10,C   0,H   1)   -122.4405         0.050636   
    567. D(C  22,C  10,C   0,C   2)     92.6886         0.050636   
    568. D(H  11,C  10,C   0,C  18)    122.7427         0.050636   
    569. D(H  11,C  10,C   0,C  20)    106.6044         0.050636   
    570. D(C   8,C  10,C   0,C  20)    -73.2977         0.050636   
    571. D(C  18,C  10,C   0,C  22)    -35.4261         0.050636   
    572. D(C  20,C  10,C   0,C  14)     -0.0137         0.050636   
    573. D(H  11,C  10,C   0,C  22)     87.3166         0.050636   
    574. D(C  20,C  10,C   0,C  12)    -19.3080         0.050636   
    575. D(C  18,C  10,C   0,C  14)    -16.1521         0.050636   
    576. D(C  22,C  10,C   0,C  12)     -0.0202         0.050636   
    577. D(C   8,C  10,C   0,C   2)      0.1031         0.050636   
    578. D(C  20,C  10,C   0,C  22)    -19.2878         0.050636   
    579. D(C  20,C  10,C   0,C   2)     73.4008         0.050636   
    580. D(H  11,C  10,C   0,C  14)    106.5907         0.050636   
    581. D(C   8,C  10,C   0,H   1)   -179.5998         0.050636   
    582. D(C   8,C  10,C   0,C  22)    -92.5855         0.050636   
    583. D(C  22,C  10,C   0,H   1)    -87.0144         0.050636   
    584. D(H  11,C  10,C   8,H   9)      0.1252         0.046350   
    585. D(C   0,C  10,C   8,C  22)     69.0533         0.046350   
    586. D(H  11,C  10,C   8,C  18)   -125.9917         0.046350   
    587. D(C  18,C  10,C   8,H   9)    126.1169         0.046350   
    588. D(C  22,C  10,C   8,C  18)    -15.1428         0.046350   
    589. D(C  22,C  10,C   8,H   9)    110.9741         0.046350   
    590. D(C  18,C  10,C   8,C  22)     15.1428         0.046350   
    591. D(C  20,C  10,C   8,H   9)    110.9929         0.046350   
    592. D(H  11,C  10,C   0,C  12)     87.2964         0.050636   
    593. D(C  18,C  10,C   0,C  20)    -16.1383         0.050636   
    594. D(C  14,C  12,C   2,C  18)     61.7821         0.001500   
    595. D(H  13,C  12,C   0,H   1)     -0.0128         0.001500   
    596. D(H  13,C  12,C   0,C  10)   -116.6742         0.001500   
    597. D(C  14,C  12,C   2,C   4)     61.8023         0.001500   
    598. D(H  13,C  12,C   0,C  16)    152.1523         0.001500   
    599. D(H  13,C  12,C   0,C  18)   -179.9679         0.001500   
    600. D(C   2,C  12,C   0,C  20)     85.7272         0.001500   
    601. D(H  13,C  12,C   2,C   4)   -179.9623         0.001500   
    602. D(C  14,C  12,C   0,C  20)     85.7548         0.001500   
    603. D(C  22,C  12,C   0,C  14)   -118.5437         0.001500   
    604. D(C  14,C  12,C   2,H   3)    -54.8764         0.001500   
    605. D(C  22,C  12,C   0,C  16)    -91.1173         0.001500   
    606. D(C  22,C  12,C   0,C  20)    -32.7889         0.001500   
    607. D(C  14,C  12,C   0,C  18)     55.3061         0.001500   
    608. D(C  22,C  12,C   0,C  18)    -63.2376         0.001500   
    609. D(H  13,C  12,C   2,C  16)    147.7106         0.001500   
    610. D(C  14,C  12,C   0,C   2)      0.0276         0.001500   
    611. D(C  14,C  12,C   0,C  16)     27.4264         0.001500   
    612. D(C   2,C  12,C   0,C  22)    118.5161         0.001500   
    613. D(C   2,C  12,C   0,C  16)     27.3988         0.001500   
    614. D(C   2,C  12,C   0,H   1)   -124.7663         0.001500   
    615. D(C   2,C  12,C   0,C  10)    118.5722         0.001500   
    616. D(H  13,C  12,C   0,C  20)   -149.5192         0.001500   
    617. D(C  22,C  12,C   0,C  10)      0.0561         0.001500   
    618. D(C  14,C  12,C   0,C  22)    118.5437         0.001500   
    619. D(H  13,C  12,C   2,H   3)     63.3589         0.001500   
    620. D(H  13,C  12,C   0,C  14)    124.7260         0.001500   
    621. D(C  22,C  12,C   0,C   2)   -118.5161         0.001500   
    622. D(C  22,C  12,C   0,H   1)    116.7175         0.001500   
    623. D(H  13,C  12,C   0,C   2)    124.7535         0.001500   
    624. D(C   2,C  12,C   0,C  18)     55.2786         0.001500   
    625. D(H  13,C  12,C   2,C  20)   -147.1656         0.001500   
    626. D(C  14,C  12,C   0,H   1)   -124.7388         0.001500   
    627. D(C  14,C  12,C   0,C  10)    118.5998         0.001500   
    628. D(H  13,C  12,C   0,C  22)   -116.7303         0.001500   
    629. D(H  13,C  12,C   2,C   0)    -61.7370         0.001500   
    630. D(C  14,C  12,C   2,C  16)     29.4752         0.001500   
    631. D(H  13,C  12,C   2,C  14)    118.2353         0.001500   
    632. D(C  22,C  12,C   2,C  20)    -30.2856         0.001500   
    633. D(H  13,C  12,C   2,C  22)   -116.8800         0.001500   
    634. D(H  13,C  12,C   2,C  18)   -179.9825         0.001500   
    635. D(C   0,C  12,C   2,C  22)    -55.1430         0.001500   
    636. D(C   0,C  12,C   2,C  20)    -85.4286         0.001500   
    637. D(C  22,C  12,C   2,C  16)    -95.4095         0.001500   
    638. D(C  22,C  12,C   2,H   3)   -179.7611         0.001500   
    639. D(C  22,C  12,C   2,C   0)     55.1430         0.001500   
    640. D(C  22,C  12,C   2,C  18)    -63.1025         0.001500   
    641. D(C   2,C  12,C   0,C  14)     -0.0276         0.001500   
    642. D(C   0,C  12,C   2,H   3)    125.0959         0.001500   
    643. D(C   0,C  12,C   2,C   4)   -118.2253         0.001500   
    644. D(C   0,C  12,C   2,C  14)    179.9724         0.001500   
    645. D(C   0,C  12,C   2,C  16)   -150.5524         0.001500   
    646. D(C   0,C  12,C   2,C  18)   -118.2455         0.001500   
    647. D(C  14,C  12,C   2,C  20)     94.5991         0.001500   
    648. D(C  22,C  12,C   2,C  14)   -124.8847         0.001500   
    649. D(C  22,C  12,C   2,C   4)    -63.0824         0.001500   
    650. D(C  14,C  12,C   2,C  22)    124.8847         0.001500   
    651. D(C  14,C  12,C   2,C   0)   -179.9724         0.001500   
    652. D(C  12,C  14,C   0,C  10)    -70.7960         0.001500   
    653. D(C   4,C  14,C  12,C  22)     52.2115         0.044721   
    654. D(C   2,C  14,C  12,H  13)   -113.2553         0.044721   
    655. D(C   0,C  14,C  12,C  22)     66.7485         0.044721   
    656. D(C   0,C  14,C  12,H  13)   -113.2454         0.044721   
    657. D(C  16,C  14,C  12,C   2)    -66.9133         0.044721   
    658. D(H  15,C  14,C  12,C   2)    113.3335         0.044721   
    659. D(C  16,C  14,C  12,H  13)    179.8313         0.044721   
    660. D(H  15,C  14,C  12,C  22)   -179.9280         0.044721   
    661. D(C   2,C  14,C   4,C  22)    -78.5553         0.001500   
    662. D(C   2,C  14,C   4,C   6)   -107.7883         0.001500   
    663. D(C   0,C  14,C   4,C   6)    -78.3463         0.001500   
    664. D(C   0,C  14,C   4,C  20)    -78.3062         0.001500   
    665. D(C   0,C  14,C   4,C  18)   -114.3379         0.001500   
    666. D(C   2,C  14,C   4,C  18)   -143.7799         0.001500   
    667. D(C  12,C  14,C   4,C   6)    -53.7196         0.001500   
    668. D(C   0,C  14,C   4,C   2)     29.4420         0.001500   
    669. D(C   2,C  14,C   0,C  10)    109.1731         0.001500   
    670. D(C   2,C  14,C   0,C  12)    179.9691         0.001500   
    671. D(C   2,C  14,C   0,H   1)   -127.2142         0.001500   
    672. D(C  16,C  14,C   4,H   5)    -53.9868         0.001500   
    673. D(H  15,C  14,C   4,C  20)    179.9700         0.001500   
    674. D(C   2,C  14,C   0,C  22)    145.4168         0.001500   
    675. D(C   4,C  14,C   0,H   1)   -155.4793         0.001500   
    676. D(C   4,C  14,C   0,C   2)    -28.2651         0.001500   
    677. D(H  15,C  14,C   4,C  16)    107.7598         0.001500   
    678. D(H  15,C  14,C   4,H   5)     53.7730         0.001500   
    679. D(C   4,C  14,C   0,C  12)    151.7040         0.001500   
    680. D(C   4,C  14,C   0,C  18)     50.1976         0.001500   
    681. D(C  12,C  14,C   4,C  20)    -53.6795         0.001500   
    682. D(C  12,C  14,C   4,C  18)    -89.7112         0.001500   
    683. D(C  12,C  14,C   4,H   5)   -179.8765         0.001500   
    684. D(C   4,C  14,C   2,C  22)     95.3878         0.001500   
    685. D(C  12,C  14,C   4,C   2)     54.0687         0.001500   
    686. D(C  12,C  14,C   2,C  16)   -124.6555         0.001500   
    687. D(C  12,C  14,C   2,C  20)    -61.4327         0.001500   
    688. D(C   4,C  14,C   2,H   3)   -116.7202         0.001500   
    689. D(C   0,C  14,C   2,C  22)    -29.3316         0.001500   
    690. D(H  15,C  14,C   2,H   3)      0.0162         0.001500   
    691. D(C   0,C  14,C   2,C   4)   -124.7194         0.001500   
    692. D(C   0,C  14,C   2,C  12)     -0.0276         0.001500   
    693. D(C  16,C  14,C   2,C  22)     95.3514         0.001500   
    694. D(H  15,C  14,C   2,C  16)    116.7727         0.001500   
    695. D(C  16,C  14,C   2,C  18)     30.4351         0.001500   
    696. D(C  16,C  14,C   2,C   4)     -0.0363         0.001500   
    697. D(C  16,C  14,C   2,C  20)     63.2228         0.001500   
    698. D(C   0,C  14,C   2,C  16)   -124.6831         0.001500   
    699. D(C  16,C  14,C   2,C  12)    124.6555         0.001500   
    700. D(H  15,C  14,C   2,C  22)   -147.8759         0.001500   
    701. D(H  15,C  14,C   2,C  20)    179.9955         0.001500   
    702. D(H  15,C  14,C   2,C  18)    147.2078         0.001500   
    703. D(H  15,C  14,C   2,C   0)   -118.5442         0.001500   
    704. D(C  16,C  14,C   2,H   3)   -116.7565         0.001500   
    705. D(H  15,C  14,C   2,C  12)   -118.5718         0.001500   
    706. D(C  12,C  14,C   2,C  18)    -94.2204         0.001500   
    707. D(C  16,C  14,C   2,C   0)    124.6831         0.001500   
    708. D(C   4,C  14,C   2,C  12)    124.6918         0.001500   
    709. D(C   0,C  14,C   2,C  20)    -61.4603         0.001500   
    710. D(C   4,C  14,C   2,C   0)    124.7194         0.001500   
    711. D(C  12,C  14,C   2,C  22)    -29.3040         0.001500   
    712. D(C   4,C  14,C   2,C  20)     63.2591         0.001500   
    713. D(C   4,C  14,C   0,C  22)    117.1517         0.001500   
    714. D(C   4,C  14,C   2,C  16)      0.0363         0.001500   
    715. D(C  12,C  14,C   4,C  16)   -125.8898         0.001500   
    716. D(C   4,C  14,C   2,C  18)     30.4715         0.001500   
    717. D(C  12,C  14,C   2,H   3)    118.5880         0.001500   
    718. D(C  12,C  14,C   2,C   0)      0.0276         0.001500   
    719. D(H  15,C  14,C   4,C  18)    143.9383         0.001500   
    720. D(C   4,C  14,C   0,C  20)     80.8866         0.001500   
    721. D(C   2,C  14,C   0,C  20)    109.1518         0.001500   
    722. D(C   2,C  14,C   0,C  18)     78.4627         0.001500   
    723. D(C   0,C  14,C   2,H   3)    118.5604         0.001500   
    724. D(C   4,C  14,C   0,C  16)     24.6877         0.001500   
    725. D(C   0,C  14,C   2,C  18)    -94.2479         0.001500   
    726. D(H  15,C  14,C   4,C   2)    -72.2818         0.001500   
    727. D(C   4,C  14,C   0,C  10)     80.9080         0.001500   
    728. D(C   0,C  14,C   4,H   5)    155.4968         0.001500   
    729. D(H  15,C  14,C   4,C   6)    179.9299         0.001500   
    730. D(C   0,C  14,C   4,C  16)   -150.5165         0.001500   
    731. D(C  12,C  14,C   2,C   4)   -124.6918         0.001500   
    732. D(C  16,C  14,C   4,C  18)     36.1786         0.001500   
    733. D(C   0,C  14,C   4,C  22)    -49.1133         0.001500   
    734. D(H  15,C  14,C   4,C  22)   -150.8371         0.001500   
    735. D(C   2,C  14,C   4,H   5)    126.0548         0.001500   
    736. D(C   2,C  14,C   4,C  16)   -179.9584         0.001500   
    737. D(C  16,C  14,C   4,C   2)    179.9584         0.001500   
    738. D(C   2,C  14,C   0,C  16)     52.9528         0.001500   
    739. D(C  12,C  14,C   4,C  22)    -24.4866         0.001500   
    740. D(H  15,C  14,C  12,H  13)      0.0782         0.044721   
    741. D(H  15,C  14,C  12,C   0)    113.3236         0.044721   
    742. D(C  16,C  14,C   4,C  20)     72.2102         0.001500   
    743. D(C  16,C  14,C  12,C  22)     -0.1748         0.044721   
    744. D(C  16,C  14,C   4,C  22)    101.4032         0.001500   
    745. D(C  16,C  14,C   0,C  22)     92.4640         0.001500   
    746. D(C  16,C  14,C  12,C   0)    -66.9233         0.044721   
    747. D(C  16,C  14,C   0,C  10)     56.2203         0.001500   
    748. D(C   2,C  14,C   4,C  20)   -107.7482         0.001500   
    749. D(H  15,C  14,C   2,C   4)    116.7364         0.001500   
    750. D(C  16,C  14,C   0,C   2)    -52.9528         0.001500   
    751. D(H  15,C  14,C   0,C  18)    149.3327         0.001500   
    752. D(C   0,C  14,C  12,C   2)      0.0099         0.044721   
    753. D(H  15,C  14,C   0,C  22)   -143.7131         0.001500   
    754. D(H  15,C  14,C   0,C  16)    123.8229         0.001500   
    755. D(C   2,C  14,C  12,C  22)     66.7385         0.044721   
    756. D(H  15,C  14,C   0,C  20)   -179.9782         0.001500   
    757. D(C   2,C  14,C  12,C   0)     -0.0099         0.044721   
    758. D(H  15,C  14,C   0,C   2)     70.8701         0.001500   
    759. D(C  12,C  14,C   0,C  22)    -34.5523         0.001500   
    760. D(C   4,C  14,C  12,C   0)    -14.5370         0.044721   
    761. D(C   4,C  14,C  12,H  13)   -127.7824         0.044721   
    762. D(C  12,C  14,C   0,C  16)   -127.0163         0.001500   
    763. D(C  12,C  14,C   0,H   1)     52.8167         0.001500   
    764. D(C   4,C  14,C  12,C   2)    -14.5271         0.044721   
    765. D(C  12,C  14,C   0,C   2)   -179.9691         0.001500   
    766. D(C  16,C  14,C   0,C  12)    127.0163         0.001500   
    767. D(C  12,C  14,C   0,C  18)   -101.5064         0.001500   
    768. D(C  12,C  14,C   0,C  20)    -70.8173         0.001500   
    769. D(H  15,C  14,C   0,C  10)   -179.9569         0.001500   
    770. D(H  15,C  14,C   0,C  12)   -109.1608         0.001500   
    771. D(H  15,C  14,C   0,H   1)    -56.3441         0.001500   
    772. D(C  16,C  14,C   0,H   1)    179.8330         0.001500   
    773. D(C  16,C  14,C   0,C  18)     25.5099         0.001500   
    774. D(C  16,C  14,C   4,C   6)     72.1702         0.001500   
    775. D(C  16,C  14,C   0,C  20)     56.1989         0.001500   
    776. D(C   0,C  16,C  14,H  15)   -126.1316         0.046348   
    777. D(C  18,C  16,C  14,C   2)    -69.0163         0.046348   
    778. D(C   2,C  16,C   0,C  20)    142.7188         0.001500   
    779. D(H  17,C  16,C  14,C   4)    110.8702         0.046348   
    780. D(C   4,C  16,C   0,C  12)   -179.9985         0.001500   
    781. D(H  17,C  16,C  14,C  12)   -179.8800         0.046348   
    782. D(C   4,C  16,C   0,C  22)    144.7881         0.001500   
    783. D(C   2,C  16,C   4,C  18)   -116.7207         0.001500   
    784. D(C   2,C  16,C   4,C  14)      0.0363         0.001500   
    785. D(C   0,C  16,C   4,C  20)    -56.7032         0.001500   
    786. D(C  14,C  16,C   2,C  12)    -29.1299         0.001500   
    787. D(C   0,C  16,C   4,C  18)    -88.8327         0.001500   
    788. D(C   0,C  16,C   4,H   5)    152.6448         0.001500   
    789. D(H  17,C  16,C   2,C   4)     60.3118         0.001500   
    790. D(C  18,C  16,C   4,C  14)    116.7570         0.001500   
    791. D(C   0,C  16,C   4,C   6)    -88.8894         0.001500   
    792. D(H  17,C  16,C   2,C  14)   -119.6528         0.001500   
    793. D(C  18,C  16,C   4,C   2)    116.7207         0.001500   
    794. D(H  17,C  16,C   4,C  22)    179.9742         0.001500   
    795. D(H  17,C  16,C   4,C  20)    150.6611         0.001500   
    796. D(H  17,C  16,C   4,C   6)    118.4749         0.001500   
    797. D(H  17,C  16,C   4,C   2)   -124.7476         0.001500   
    798. D(C  14,C  16,C   4,C  20)    -84.6276         0.001500   
    799. D(C  18,C  16,C   2,C  22)     63.0021         0.001500   
    800. D(C  14,C  16,C   4,C   2)     -0.0363         0.001500   
    801. D(C   4,C  16,C   2,C  18)     56.6670         0.001500   
    802. D(C   4,C  16,C   2,C  14)   -179.9646         0.001500   
    803. D(C  14,C  16,C   4,H   5)    124.7204         0.001500   
    804. D(C   0,C  16,C   2,C  22)      0.0159         0.001500   
    805. D(C   4,C  16,C   2,C   0)    119.6532         0.001500   
    806. D(C   4,C  16,C   2,C  12)    150.9055         0.001500   
    807. D(C   0,C  16,C   2,C  14)     60.3822         0.001500   
    808. D(C   4,C  16,C   2,C  20)     87.4666         0.001500   
    809. D(C   0,C  16,C   2,C  12)     31.2523         0.001500   
    810. D(C  14,C  16,C   4,C   6)   -116.8137         0.001500   
    811. D(C  18,C  16,C   2,C  20)     30.7996         0.001500   
    812. D(C   4,C  16,C   2,C  22)    119.6691         0.001500   
    813. D(C  18,C  16,C   2,C  14)    123.3684         0.001500   
    814. D(C  18,C  16,C   2,C  12)     94.2385         0.001500   
    815. D(C  14,C  16,C   4,C  22)    -55.3145         0.001500   
    816. D(C  18,C  16,C   2,C   4)    -56.6670         0.001500   
    817. D(C  18,C  16,C   2,H   3)    179.8077         0.001500   
    818. D(H  17,C  16,C   4,C  18)    118.5316         0.001500   
    819. D(H  17,C  16,C   2,C  20)    147.7784         0.001500   
    820. D(H  17,C  16,C   2,C  18)    116.9788         0.001500   
    821. D(H  17,C  16,C   4,C  14)   -124.7113         0.001500   
    822. D(C  18,C  16,C   4,C   6)     -0.0567         0.001500   
    823. D(H  17,C  16,C   2,C  12)   -148.7827         0.001500   
    824. D(C  18,C  16,C   4,C  22)     61.4426         0.001500   
    825. D(H  17,C  16,C   2,H   3)    -63.2135         0.001500   
    826. D(H  17,C  16,C   2,C  22)    179.9809         0.001500   
    827. D(C  18,C  16,C   2,C   0)     62.9862         0.001500   
    828. D(C  18,C  16,C   4,C  20)     32.1294         0.001500   
    829. D(C  18,C  16,C   4,H   5)   -118.5226         0.001500   
    830. D(H  17,C  16,C   2,C   0)    179.9650         0.001500   
    831. D(C  14,C  16,C   2,C  22)    -60.3663         0.001500   
    832. D(C  14,C  16,C   2,C  20)    -92.5688         0.001500   
    833. D(C  14,C  16,C   4,C  18)   -116.7570         0.001500   
    834. D(C   0,C  16,C   2,H   3)    116.8215         0.001500   
    835. D(C   0,C  16,C   2,C   4)   -119.6532         0.001500   
    836. D(C  14,C  16,C   2,C  18)   -123.3684         0.001500   
    837. D(C   0,C  16,C   4,C  14)     27.9244         0.001500   
    838. D(C   0,C  16,C   2,C  18)    -62.9862         0.001500   
    839. D(C   0,C  16,C   2,C  20)    -32.1866         0.001500   
    840. D(C   0,C  16,C   4,C   2)     27.8881         0.001500   
    841. D(C   4,C  16,C   2,H   3)   -123.5253         0.001500   
    842. D(C   0,C  16,C   4,C  22)    -27.3901         0.001500   
    843. D(C  14,C  16,C   2,C   4)    179.9646         0.001500   
    844. D(C  14,C  16,C   2,H   3)     56.4393         0.001500   
    845. D(C  14,C  16,C   2,C   0)    -60.3822         0.001500   
    846. D(C   2,C  16,C   4,C   6)   -116.7774         0.001500   
    847. D(C   2,C  16,C   4,C  20)    -84.5913         0.001500   
    848. D(C   4,C  16,C   0,C  20)    107.4880         0.001500   
    849. D(C   2,C  16,C   4,C  22)    -55.2782         0.001500   
    850. D(H  17,C  16,C  14,H  15)     -0.1269         0.046348   
    851. D(C   4,C  16,C   0,C  18)     76.7529         0.001500   
    852. D(C   4,C  16,C   0,C  14)   -152.0282         0.001500   
    853. D(H  17,C  16,C  14,C   2)    110.8833         0.046348   
    854. D(C   4,C  16,C   0,C  10)     76.7718         0.001500   
    855. D(C   4,C  16,C   0,C   2)    -35.2308         0.001500   
    856. D(C   4,C  16,C   0,H   1)   -152.2003         0.001500   
    857. D(C  18,C  16,C  14,C  12)      0.2204         0.046348   
    858. D(H  17,C  16,C  14,C   0)    126.0047         0.046348   
    859. D(C   2,C  16,C   0,C  22)   -179.9811         0.001500   
    860. D(C  18,C  16,C  14,C   4)    -69.0294         0.046348   
    861. D(C  18,C  16,C  14,C   0)    -53.8948         0.046348   
    862. D(C   2,C  16,C   0,C  18)    111.9836         0.001500   
    863. D(C   2,C  16,C   0,C  14)   -116.7975         0.001500   
    864. D(C   0,C  16,C  14,C  12)     54.1152         0.046348   
    865. D(C   2,C  16,C   0,C  12)   -144.7677         0.001500   
    866. D(C   2,C  16,C   0,C  10)    112.0025         0.001500   
    867. D(C   2,C  16,C   0,H   1)   -116.9695         0.001500   
    868. D(C  18,C  16,C   0,C  22)     68.0352         0.001500   
    869. D(C  18,C  16,C  14,H  15)    179.9736         0.046348   
    870. D(H  17,C  16,C   4,H   5)      0.0091         0.001500   
    871. D(H  17,C  16,C   0,C  14)   -116.8390         0.001500   
    872. D(C  18,C  16,C   0,C  10)      0.0189         0.001500   
    873. D(C   2,C  16,C   4,H   5)    124.7567         0.001500   
    874. D(H  17,C  16,C   0,C  20)    142.6772         0.001500   
    875. D(H  17,C  16,C   0,C  10)    111.9610         0.001500   
    876. D(C  14,C  16,C   0,C  22)    -63.1837         0.001500   
    877. D(C  14,C  16,C   0,C  20)   -100.4838         0.001500   
    878. D(C  14,C  16,C   0,C  18)   -131.2189         0.001500   
    879. D(C  14,C  16,C   0,C   2)    116.7975         0.001500   
    880. D(C  18,C  16,C   0,C  14)    131.2189         0.001500   
    881. D(C  14,C  16,C   0,C  12)    -27.9703         0.001500   
    882. D(C  14,C  16,C   0,C  10)   -131.2000         0.001500   
    883. D(H  17,C  16,C   0,H   1)   -117.0110         0.001500   
    884. D(H  17,C  16,C   0,C   2)     -0.0415         0.001500   
    885. D(H  17,C  16,C   0,C  12)   -144.8093         0.001500   
    886. D(H  17,C  16,C   0,C  18)    111.9421         0.001500   
    887. D(H  17,C  16,C   0,C  22)    179.9773         0.001500   
    888. D(C  18,C  16,C   0,H   1)    131.0469         0.001500   
    889. D(C  18,C  16,C   0,C  12)    103.2486         0.001500   
    890. D(C  18,C  16,C   0,C  20)     30.7352         0.001500   
    891. D(C   4,C  16,C  14,C   2)      0.0131         0.046348   
    892. D(C   4,C  16,C  14,C   0)     15.1345         0.046348   
    893. D(C   4,C  16,C  14,H  15)   -110.9971         0.046348   
    894. D(C   4,C  16,C  14,C  12)     69.2498         0.046348   
    895. D(C   2,C  16,C  14,C   4)     -0.0131         0.046348   
    896. D(C   2,C  16,C  14,C   0)     15.1215         0.046348   
    897. D(C   2,C  16,C  14,H  15)   -111.0101         0.046348   
    898. D(C   2,C  16,C  14,C  12)     69.2367         0.046348   
    899. D(C   0,C  16,C  14,C   4)    -15.1345         0.046348   
    900. D(C   0,C  16,C  14,C   2)    -15.1215         0.046348   
    901. D(C  18,C  16,C   0,C   2)   -111.9836         0.001500   
    902. D(C  14,C  16,C   0,H   1)     -0.1720         0.001500   
    903. D(C  10,C  18,C  16,C   4)    -35.4335         0.050632   
    904. D(C  10,C  18,C  16,C   2)    -16.1479         0.050632   
    905. D(C  10,C  18,C  16,H  17)   -122.7414         0.050632   
    906. D(C  10,C  18,C  16,C  14)     57.1581         0.050632   
    907. D(C   8,C  18,C  16,C   4)    -19.2866         0.050632   
    908. D(C   8,C  18,C  16,C   0)     16.1410         0.050632   
    909. D(C   8,C  18,C  16,H  17)   -106.5945         0.050632   
    910. D(C   8,C  18,C  16,C  14)     73.3050         0.050632   
    911. D(C   6,C  18,C  16,C   2)     19.3061         0.050632   
    912. D(C   6,C  18,C  16,C   0)     35.4480         0.050632   
    913. D(C   6,C  18,C  16,H  17)    -87.2875         0.050632   
    914. D(C   6,C  18,C  16,C  14)     92.6120         0.050632   
    915. D(C   4,C  18,C  16,C   2)     19.2856         0.050632   
    916. D(C   4,C  18,C  16,C   0)     35.4276         0.050632   
    917. D(C   4,C  18,C  16,H  17)    -87.3080         0.050632   
    918. D(C   2,C  18,C  16,C   4)    -19.2856         0.050632   
    919. D(C   2,C  18,C  16,C   0)     16.1420         0.050632   
    920. D(C   2,C  18,C  16,H  17)   -106.5936         0.050632   
    921. D(C   0,C  18,C  16,C   4)    -35.4276         0.050632   
    922. D(C   0,C  18,C  16,C   2)    -16.1420         0.050632   
    923. D(C   0,C  18,C  16,H  17)   -122.7355         0.050632   
    924. D(C  20,C  18,C  16,C   4)    -92.6945         0.050632   
    925. D(C  20,C  18,C  16,C   2)    -73.4089         0.050632   
    926. D(C  20,C  18,C  16,C   0)    -57.2669         0.050632   
    927. D(C  20,C  18,C  16,H  17)    179.9976         0.050632   
    928. D(C  20,C  18,C  16,C  14)     -0.1029         0.050632   
    929. D(H  19,C  18,C  16,C   4)     87.0053         0.050632   
    930. D(H  19,C  18,C  16,C   2)    106.2909         0.050632   
    931. D(H  19,C  18,C  16,H  17)     -0.3027         0.050632   
    932. D(H  19,C  18,C  16,C  14)    179.5968         0.050632   
    933. D(C   8,C  18,C  10,C  22)    152.0134         0.001500   
    934. D(C   8,C  18,C  10,H  11)    116.8261         0.001500   
    935. D(C   8,C  18,C  10,C   0)   -131.2164         0.001500   
    936. D(C   6,C  18,C  10,C  22)    179.9920         0.001500   
    937. D(C   6,C  18,C  10,H  11)    144.8047         0.001500   
    938. D(C   6,C  18,C  10,C   8)     27.9786         0.001500   
    939. D(C   6,C  18,C  10,C   0)   -103.2378         0.001500   
    940. D(C   4,C  18,C  10,C  22)   -144.7889         0.001500   
    941. D(C   4,C  18,C  10,C  20)    179.9825         0.001500   
    942. D(C   4,C  18,C  10,H  11)   -179.9762         0.001500   
    943. D(C   4,C  18,C  10,C   8)     63.1977         0.001500   
    944. D(C   2,C  18,C  10,C  22)   -107.4963         0.001500   
    945. D(C   2,C  18,C  10,C  20)   -142.7249         0.001500   
    946. D(C   2,C  18,C  10,H  11)   -142.6836         0.001500   
    947. D(C   2,C  18,C  10,C   0)    -30.7261         0.001500   
    948. D(C   0,C  18,C  10,C  22)    -76.7702         0.001500   
    949. D(C   0,C  18,C  10,C  20)   -111.9988         0.001500   
    950. D(C   0,C  18,C  10,H  11)   -111.9575         0.001500   
    951. D(C   0,C  18,C  10,C   8)    131.2164         0.001500   
    952. D(C  20,C  18,C  10,C  22)     35.2286         0.001500   
    953. D(C  20,C  18,C  10,H  11)      0.0413         0.001500   
    954. D(C  20,C  18,C  10,C   8)   -116.7848         0.001500   
    955. D(C  20,C  18,C  10,C   0)    111.9988         0.001500   
    956. D(H  19,C  18,C  10,C  22)    152.2142         0.001500   
    957. D(H  19,C  18,C  10,C  20)    116.9856         0.001500   
    958. D(H  19,C  18,C  10,C   8)      0.2008         0.001500   
    959. D(H  19,C  18,C  10,C   0)   -131.0156         0.001500   
    960. D(C  16,C  18,C  10,C  22)    -76.7513         0.001500   
    961. D(C  16,C  18,C  10,H  11)   -111.9386         0.001500   
    962. D(C  16,C  18,C  10,C   8)    131.2353         0.001500   
    963. D(C  16,C  18,C  10,C   0)      0.0189         0.001500   
    964. D(C  10,C  18,C   8,C  20)    -52.9560         0.001500   
    965. D(C  10,C  18,C   8,H   9)   -123.8259         0.001500   
    966. D(C  10,C  18,C   8,C   6)    127.0038         0.001500   
    967. D(C   6,C  18,C   8,C  22)   -151.7042         0.001500   
    968. D(C   6,C  18,C   8,C  20)   -179.9598         0.001500   
    969. D(C   6,C  18,C   8,C  10)   -127.0038         0.001500   
    970. D(C   6,C  18,C   8,H   9)    109.1703         0.001500   
    971. D(C   4,C  18,C   8,C  20)   -145.4079         0.001500   
    972. D(C   4,C  18,C   8,C  10)    -92.4518         0.001500   
    973. D(C   4,C  18,C   8,H   9)    143.7223         0.001500   
    974. D(C   2,C  18,C   8,C  22)    -80.8960         0.001500   
    975. D(C   2,C  18,C   8,C  20)   -109.1516         0.001500   
    976. D(C   2,C  18,C   8,C  10)    -56.1955         0.001500   
    977. D(C   2,C  18,C   8,C   6)     70.8082         0.001500   
    978. D(C   0,C  18,C   8,C  22)    -50.2121         0.001500   
    979. D(C   0,C  18,C   8,C  20)    -78.4677         0.001500   
    980. D(C   0,C  18,C   8,C  10)    -25.5116         0.001500   
    981. D(C   0,C  18,C   8,H   9)   -149.3376         0.001500   
[...]
      px      :     0.955123
      py      :     0.860555
      dz2     :     0.003353  d :     0.065785
      dxz     :     0.011285
      dyz     :     0.005443
      dx2y2   :     0.022620
      dxy     :     0.023084
 17 H s       :     1.006141  s :     1.006141
      pz      :     0.006189  p :     0.028518
      px      :     0.006438
      py      :     0.015892
 18 C s       :     3.107544  s :     3.107544
      pz      :     0.970041  p :     2.788483
      px      :     0.924941
      py      :     0.893501
      dz2     :     0.003529  d :     0.066044
      dxz     :     0.009467
      dyz     :     0.007325
      dx2y2   :     0.019280
      dxy     :     0.026443
 19 H s       :     1.006010  s :     1.006010
      pz      :     0.006216  p :     0.028507
      px      :     0.009222
      py      :     0.013070
 20 C s       :     3.104177  s :     3.104177
      pz      :     0.962991  p :     2.780762
      px      :     0.846080
      py      :     0.971691
      dz2     :     0.003317  d :     0.065872
      dxz     :     0.004336
      dyz     :     0.012512
      dx2y2   :     0.026574
      dxy     :     0.019132
 21 H s       :     1.003002  s :     1.003002
      pz      :     0.006429  p :     0.028608
      px      :     0.017665
      py      :     0.004514
 22 C s       :     3.108938  s :     3.108938
      pz      :     0.973063  p :     2.790859
      px      :     0.953078
      py      :     0.864718
      dz2     :     0.003529  d :     0.066029
      dxz     :     0.011253
      dyz     :     0.005517
      dx2y2   :     0.022758
      dxy     :     0.022973
 23 H s       :     1.006436  s :     1.006436
      pz      :     0.006181  p :     0.028491
      px      :     0.006455
      py      :     0.015855


                     *******************************
                     * LOEWDIN POPULATION ANALYSIS *
                     *******************************

----------------------
LOEWDIN ATOMIC CHARGES
----------------------
   0 C :   -0.020082
   1 H :    0.024510
   2 C :   -0.016336
   3 H :    0.025745
   4 C :   -0.021617
   5 H :    0.024300
   6 C :   -0.030109
   7 H :    0.024271
   8 C :   -0.030131
   9 H :    0.024506
  10 C :   -0.029221
  11 H :    0.024182
  12 C :   -0.030115
  13 H :    0.024271
  14 C :   -0.030134
  15 H :    0.024505
  16 C :   -0.029228
  17 H :    0.024181
  18 C :   -0.020086
  19 H :    0.024506
  20 C :   -0.016329
  21 H :    0.025740
  22 C :   -0.021625
  23 H :    0.024297

-------------------------------
LOEWDIN REDUCED ORBITAL CHARGES
-------------------------------
  0 C s       :     2.816850  s :     2.816850
      pz      :     0.937134  p :     3.003491
      px      :     1.037420
      py      :     1.028936
      dz2     :     0.013669  d :     0.199741
      dxz     :     0.023919
      dyz     :     0.017284
      dx2y2   :     0.063192
      dxy     :     0.081677
  1 H s       :     0.896010  s :     0.896010
      pz      :     0.017666  p :     0.079480
      px      :     0.026366
      py      :     0.035447
  2 C s       :     2.816185  s :     2.816185
      pz      :     0.933294  p :     3.000900
      px      :     1.014779
      py      :     1.052827
      dz2     :     0.013220  d :     0.199251
      dxz     :     0.009016
      dyz     :     0.032233
      dx2y2   :     0.081946
      dxy     :     0.062836
  3 H s       :     0.894495  s :     0.894495
      pz      :     0.018059  p :     0.079760
      px      :     0.046548
      py      :     0.015153
  4 C s       :     2.816969  s :     2.816969
      pz      :     0.938821  p :     3.004890
      px      :     1.045916
      py      :     1.020153
      dz2     :     0.013711  d :     0.199758
      dxz     :     0.029047
      dyz     :     0.012128
      dx2y2   :     0.072222
      dxy     :     0.072650
  5 H s       :     0.896258  s :     0.896258
      pz      :     0.017650  p :     0.079442
      px      :     0.019782
      py      :     0.042010
  6 C s       :     2.817145  s :     2.817145
      pz      :     0.947939  p :     3.013515
      px      :     1.038459
      py      :     1.027118
      dz2     :     0.013412  d :     0.199449
      dxz     :     0.023966
      dyz     :     0.017297
      dx2y2   :     0.062853
      dxy     :     0.081921
  7 H s       :     0.896219  s :     0.896219
      pz      :     0.017854  p :     0.079510
      px      :     0.026224
      py      :     0.035431
  8 C s       :     2.817416  s :     2.817416
      pz      :     0.946975  p :     3.013115
      px      :     1.012790
      py      :     1.053350
      dz2     :     0.012949  d :     0.199600
      dxz     :     0.008493
      dyz     :     0.033357
      dx2y2   :     0.082320
      dxy     :     0.062480
  9 H s       :     0.896022  s :     0.896022
      pz      :     0.018031  p :     0.079472
      px      :     0.046228
      py      :     0.015213
 10 C s       :     2.817090  s :     2.817090
      pz      :     0.947122  p :     3.012674
      px      :     1.046676
      py      :     1.018875
      dz2     :     0.013511  d :     0.199458
      dxz     :     0.029101
      dyz     :     0.012044
      dx2y2   :     0.071775
      dxy     :     0.073027
 11 H s       :     0.896314  s :     0.896314
      pz      :     0.017807  p :     0.079504
      px      :     0.019711
      py      :     0.041986
 12 C s       :     2.817145  s :     2.817145
      pz      :     0.947956  p :     3.013520
      px      :     1.038449
      py      :     1.027115
      dz2     :     0.013415  d :     0.199449
      dxz     :     0.023968
      dyz     :     0.017304
      dx2y2   :     0.062849
      dxy     :     0.081913
 13 H s       :     0.896220  s :     0.896220
      pz      :     0.017855  p :     0.079510
      px      :     0.026222
      py      :     0.035432
 14 C s       :     2.817417  s :     2.817417
      pz      :     0.946987  p :     3.013117
      px      :     1.012781
      py      :     1.053350
      dz2     :     0.012948  d :     0.199600
      dxz     :     0.008501
      dyz     :     0.033361
      dx2y2   :     0.082313
      dxy     :     0.062476
 15 H s       :     0.896023  s :     0.896023
      pz      :     0.018034  p :     0.079472
      px      :     0.046225
      py      :     0.015213
 16 C s       :     2.817089  s :     2.817089
      pz      :     0.947142  p :     3.012681
      px      :     1.046664
      py      :     1.018874
      dz2     :     0.013516  d :     0.199458
      dxz     :     0.029102
      dyz     :     0.012051
      dx2y2   :     0.071768
      dxy     :     0.073021
 17 H s       :     0.896315  s :     0.896315
      pz      :     0.017808  p :     0.079504
      px      :     0.019711
      py      :     0.041985
 18 C s       :     2.816849  s :     2.816849
      pz      :     0.937150  p :     3.003495
      px      :     1.037408
      py      :     1.028937
      dz2     :     0.013673  d :     0.199742
      dxz     :     0.023921
      dyz     :     0.017292
      dx2y2   :     0.063187
      dxy     :     0.081669
 19 H s       :     0.896014  s :     0.896014
      pz      :     0.017667  p :     0.079480
      px      :     0.026365
      py      :     0.035447
 20 C s       :     2.816183  s :     2.816183
      pz      :     0.933293  p :     3.000894
      px      :     1.014773
      py      :     1.052828
      dz2     :     0.013220  d :     0.199252
      dxz     :     0.009026
      dyz     :     0.032237
      dx2y2   :     0.081937
      dxy     :     0.062832
 21 H s       :     0.894499  s :     0.894499
      pz      :     0.018064  p :     0.079762
      px      :     0.046545
      py      :     0.015153
 22 C s       :     2.816968  s :     2.816968
      pz      :     0.938842  p :     3.004898
      px      :     1.045902
      py      :     1.020153
      dz2     :     0.013715  d :     0.199759
      dxz     :     0.029048
      dyz     :     0.012136
      dx2y2   :     0.072216
      dxy     :     0.072644
 23 H s       :     0.896261  s :     0.896261
      pz      :     0.017651  p :     0.079442
      px      :     0.019782
      py      :     0.042009


                      *****************************
                      * MAYER POPULATION ANALYSIS *
                      *****************************

  NA   - Mulliken gross atomic population
  ZA   - Total nuclear charge
  QA   - Mulliken gross atomic charge
  VA   - Mayer's total valence
  BVA  - Mayer's bonded valence
  FA   - Mayer's free valence

  ATOM       NA         ZA         QA         VA         BVA        FA
  0 C      5.9621     6.0000     0.0379     4.0199     4.0199     0.0000
  1 H      1.0345     1.0000    -0.0345     0.9703     0.9703     0.0000
  2 C      5.9508     6.0000     0.0492     4.0181     4.0181    -0.0000
  3 H      1.0316     1.0000    -0.0316     0.9724     0.9724    -0.0000
  4 C      5.9658     6.0000     0.0342     4.0200     4.0200    -0.0000
  5 H      1.0349     1.0000    -0.0349     0.9693     0.9693    -0.0000
  6 C      5.9721     6.0000     0.0279     4.0146     4.0146    -0.0000
  7 H      1.0342     1.0000    -0.0342     0.9668     0.9668    -0.0000
  8 C      5.9733     6.0000     0.0267     4.0171     4.0171    -0.0000
  9 H      1.0338     1.0000    -0.0338     0.9669     0.9669     0.0000
 10 C      5.9721     6.0000     0.0279     4.0153     4.0153    -0.0000
 11 H      1.0347     1.0000    -0.0347     0.9669     0.9669    -0.0000
 12 C      5.9721     6.0000     0.0279     4.0146     4.0146    -0.0000
 13 H      1.0342     1.0000    -0.0342     0.9668     0.9668    -0.0000
 14 C      5.9733     6.0000     0.0267     4.0171     4.0171    -0.0000
 15 H      1.0338     1.0000    -0.0338     0.9669     0.9669    -0.0000
 16 C      5.9721     6.0000     0.0279     4.0153     4.0153     0.0000
 17 H      1.0347     1.0000    -0.0347     0.9669     0.9669    -0.0000
 18 C      5.9621     6.0000     0.0379     4.0199     4.0199    -0.0000
 19 H      1.0345     1.0000    -0.0345     0.9703     0.9703    -0.0000
 20 C      5.9508     6.0000     0.0492     4.0181     4.0181    -0.0000
 21 H      1.0316     1.0000    -0.0316     0.9724     0.9724    -0.0000
 22 C      5.9658     6.0000     0.0342     4.0200     4.0200    -0.0000
 23 H      1.0349     1.0000    -0.0349     0.9693     0.9693    -0.0000

  Mayer bond orders larger than 0.100000
B(  0-C ,  1-H ) :   0.9409 B(  0-C ,  2-C ) :   1.4651 B(  0-C , 10-C ) :   1.4573 
B(  2-C ,  3-H ) :   0.9393 B(  2-C ,  4-C ) :   1.4618 B(  4-C ,  5-H ) :   0.9413 
B(  4-C ,  6-C ) :   1.4594 B(  6-C ,  7-H ) :   0.9416 B(  6-C ,  8-C ) :   1.4600 
B(  8-C ,  9-H ) :   0.9416 B(  8-C , 10-C ) :   1.4617 B( 10-C , 11-H ) :   0.9416 
B( 12-C , 13-H ) :   0.9416 B( 12-C , 14-C ) :   1.4601 B( 12-C , 22-C ) :   1.4594 
B( 14-C , 15-H ) :   0.9416 B( 14-C , 16-C ) :   1.4617 B( 16-C , 17-H ) :   0.9416 
B( 16-C , 18-C ) :   1.4573 B( 18-C , 19-H ) :   0.9409 B( 18-C , 20-C ) :   1.4651 
B( 20-C , 21-H ) :   0.9392 B( 20-C , 22-C ) :   1.4618 B( 22-C , 23-H ) :   0.9413 


-------
TIMINGS
-------

Total SCF time: 0 days 0 hours 0 min 10 sec 

Total time                  ....      10.180 sec
Sum of individual times     ....       9.987 sec  ( 98.1%)

Fock matrix formation       ....       9.035 sec  ( 88.8%)
  Split-RI-J                ....       0.945 sec  ( 10.5% of F)
  Chain of spheres X        ....       7.133 sec  ( 79.0% of F)
  XC integration            ....       0.950 sec  ( 10.5% of F)
    Basis function eval.    ....       0.387 sec  ( 40.7% of XC)
    Density eval.           ....       0.171 sec  ( 17.9% of XC)
    XC-Functional eval.     ....       0.059 sec  (  6.2% of XC)
    XC-Potential eval.      ....       0.128 sec  ( 13.5% of XC)
Diagonalization             ....       0.008 sec  (  0.1%)
Density matrix formation    ....       0.003 sec  (  0.0%)
Population analysis         ....       0.011 sec  (  0.1%)
Initial guess               ....       0.010 sec  (  0.1%)
Orbital Transformation      ....       0.000 sec  (  0.0%)
Orbital Orthonormalization  ....       0.006 sec  (  0.1%)
DIIS solution               ....       0.004 sec  (  0.0%)
SOSCF solution              ....       0.027 sec  (  0.3%)
Grid generation             ....       0.890 sec  (  8.7%)

Maximum memory used throughout the entire SCF-calculation: 68.2 MB


-------------------------------------------------------------------------------
                          DFT DISPERSION CORRECTION                            
                                                                               
                              DFTD3 V3.1  Rev 1                                
                          USING Becke-Johnson damping                          
-------------------------------------------------------------------------------
Gaussians B3LYP functional is recognized, using regular B3LYP params
Active option DFTDOPT                   ...         4   

molecular C6(AA) [au] = 6639.509502 


            DFT-D V3
 parameters
 s6 scaling factor         :     1.0000 
 a1 scaling factor         :     0.3981 
 s8 scaling factor         :     1.9889 
 a2 scaling factor         :     4.4211 
 ad hoc parameters k1-k3   :    16.0000     1.3333    -4.0000 

 Edisp/kcal,au: -30.173199006682  -0.048084048186 
 E6   /kcal   : -14.245888333 
 E8   /kcal   : -15.927310674 
 % E8         :  52.786284512 

-------------------------   ----------------
Dispersion correction           -0.048084048
-------------------------   ----------------


-------------------------   --------------------
FINAL SINGLE POINT ENERGY      -464.570308186164
-------------------------   --------------------

                                *** OPTIMIZATION RUN DONE ***

                            ***************************************
                            *     ORCA property calculations      *
                            ***************************************

                                    ---------------------
                                    Active property flags
                                    ---------------------
   (+) Dipole Moment


------------------------------------------------------------------------------
                       ORCA ELECTRIC PROPERTIES CALCULATION
------------------------------------------------------------------------------

Dipole Moment Calculation                       ... on
Quadrupole Moment Calculation                   ... off
Polarizability Calculation                      ... off
GBWName                                         ... /scratch/opt_608/opt.gbw
Electron density file                           ... /scratch/opt_608/opt.scfp
The origin for moment calculation is the CENTER OF MASS  = (-0.000001, -0.000000  0.000002)

-------------
DIPOLE MOMENT
-------------
                                X             Y             Z
Electronic contribution:     -0.00001      -0.00000      -0.00013
Nuclear contribution   :      0.00001       0.00000      -0.00003
                        -----------------------------------------
Total Dipole Moment    :     -0.00000       0.00000      -0.00016
                        -----------------------------------------
Magnitude (a.u.)       :      0.00016
Magnitude (Debye)      :      0.00040



--------------------
Rotational spectrum 
--------------------
 
Rotational constants in cm-1:     0.053934     0.022933     0.021647 
Rotational constants in MHz :  1616.887126   687.513065   648.953335 

 Dipole components along the rotational axes: 
x,y,z [a.u.] :    -0.000141    -0.000003     0.000074 
x,y,z [Debye]:    -0.000357    -0.000007     0.000188 

 
--------------------------------------------------------------------------
WARNING: There was an error initializing an OpenFabrics device.

  Local host:   cnode06
  Local device: mlx5_0
--------------------------------------------------------------------------
[cnode06:452819] 7 more processes have sent help message help-mpi-btl-openib.txt / error in device init
[cnode06:452819] Set MCA parameter "orte_base_help_aggregate" to 0 to see all help / error messages

Timings for individual modules:

Sum of individual times         ...      203.429 sec (=   3.390 min)
GTO integral calculation        ...        6.687 sec (=   0.111 min)   3.3 %
SCF iterations                  ...      118.249 sec (=   1.971 min)  58.1 %
SCF Gradient evaluation         ...       45.568 sec (=   0.759 min)  22.4 %
Geometry relaxation             ...       32.924 sec (=   0.549 min)  16.2 %
                             ****ORCA TERMINATED NORMALLY****
TOTAL RUN TIME: 0 days 0 hours 3 minutes 28 seconds 458 msec

Sender: Unischeduler System <wangru@mgt01>
Subject: Job 141586: <#!/bin/bash
#BSUB -J intel
#BSUB -o opt.out
#BSUB -n 8
#BSUB -q cqueue
export LD_LIBRARY_PATH=/apps/software/openmpi-4.1.1/lib:/apps/software/orca_5_0_0:$LD_LIBRARY_PATH
export PATH=/apps/software/openmpi-4.1.1/bin:/apps/software/orca_5_0_0:$PATH
mkdir /scratch/opt_608
scp $USER@mgt01:/apps/users/wangru/QM/homework/exam/1-task/opt-orca/opt.inp /scratch/opt_608
scp $USER@mgt01:/apps/users/wangru/QM/homework/exam/1-task/opt-orca/benzene_dimer.xyz /scratch/opt_608
/apps/software/orca_5_0_0/orca /scratch/opt_608/opt.inp >& opt.out
scp /scratch/opt_608/*.gbw $USER@mgt01:/apps/users/wangru/QM/homework/exam/1-task/opt-orca
scp /scratch/opt_608/*.xyz $USER@mgt01:/apps/users/wangru/QM/homework/exam/1-task/opt-orca
scp /scratch/opt_608/*.trj $USER@mgt01:/apps/users/wangru/QM/homework/exam/1-task/opt-orca> Exited

Job <#!/bin/bash
#BSUB -J intel
#BSUB -o opt.out
#BSUB -n 8
#BSUB -q cqueue
export LD_LIBRARY_PATH=/apps/software/openmpi-4.1.1/lib:/apps/software/orca_5_0_0:$LD_LIBRARY_PATH
export PATH=/apps/software/openmpi-4.1.1/bin:/apps/software/orca_5_0_0:$PATH
mkdir /scratch/opt_608
scp $USER@mgt01:/apps/users/wangru/QM/homework/exam/1-task/opt-orca/opt.inp /scratch/opt_608
scp $USER@mgt01:/apps/users/wangru/QM/homework/exam/1-task/opt-orca/benzene_dimer.xyz /scratch/opt_608
/apps/software/orca_5_0_0/orca /scratch/opt_608/opt.inp >& opt.out
scp /scratch/opt_608/*.gbw $USER@mgt01:/apps/users/wangru/QM/homework/exam/1-task/opt-orca
scp /scratch/opt_608/*.xyz $USER@mgt01:/apps/users/wangru/QM/homework/exam/1-task/opt-orca
scp /scratch/opt_608/*.trj $USER@mgt01:/apps/users/wangru/QM/homework/exam/1-task/opt-orca> was submitted from host <mgt01> by user <wangru>.
Job was executed on host(s) <8*cnode06>, in queue <cqueue>, as user <wangru>.
</apps/users/wangru> was used as the home directory.
</apps/users/wangru/QM/homework/exam/1-task/opt-orca> was used as the working directory.
Started at 2022-06-15 21:49:01
Results reported at 2022-06-15 21:52:33

Your job looked like:

------------------------------------------------------------
# User input
#!/bin/bash
#BSUB -J intel
#BSUB -o opt.out
#BSUB -n 8
#BSUB -q cqueue
export LD_LIBRARY_PATH=/apps/software/openmpi-4.1.1/lib:/apps/software/orca_5_0_0:$LD_LIBRARY_PATH
export PATH=/apps/software/openmpi-4.1.1/bin:/apps/software/orca_5_0_0:$PATH
mkdir /scratch/opt_608
scp $USER@mgt01:/apps/users/wangru/QM/homework/exam/1-task/opt-orca/opt.inp /scratch/opt_608
scp $USER@mgt01:/apps/users/wangru/QM/homework/exam/1-task/opt-orca/benzene_dimer.xyz /scratch/opt_608
/apps/software/orca_5_0_0/orca /scratch/opt_608/opt.inp >& opt.out
scp /scratch/opt_608/*.gbw $USER@mgt01:/apps/users/wangru/QM/homework/exam/1-task/opt-orca
scp /scratch/opt_608/*.xyz $USER@mgt01:/apps/users/wangru/QM/homework/exam/1-task/opt-orca
scp /scratch/opt_608/*.trj $USER@mgt01:/apps/users/wangru/QM/homework/exam/1-task/opt-orca
------------------------------------------------------------

Exited with exit code 1.

Resource usage summary:

    CPU time   :         1362.54 sec.
    Max Memory :              1146 MB
    Max Processes  :              13


The output (if any) follows:

/scratch/opt_608/*.trj: No such file or directory
