
                                        *****************
                                        * O   R   C   A *
                                        *****************

                                            #,                                       
                                            ###                                      
                                            ####                                     
                                            #####                                    
                                            ######                                   
                                           ########,                                 
                                     ,,################,,,,,                         
                               ,,#################################,,                 
                          ,,##########################################,,             
                       ,#########################################, ''#####,          
                    ,#############################################,,   '####,        
                  ,##################################################,,,,####,       
                ,###########''''           ''''###############################       
              ,#####''   ,,,,##########,,,,          '''####'''          '####       
            ,##' ,,,,###########################,,,                        '##       
           ' ,,###''''                  '''############,,,                           
         ,,##''                                '''############,,,,        ,,,,,,###''
      ,#''                                            '''#######################'''  
     '                                                          ''''####''''         
             ,#######,   #######,   ,#######,      ##                                
            ,#'     '#,  ##    ##  ,#'     '#,    #''#        ######   ,####,        
            ##       ##  ##   ,#'  ##            #'  '#       #        #'  '#        
            ##       ##  #######   ##           ,######,      #####,   #    #        
            '#,     ,#'  ##    ##  '#,     ,#' ,#      #,         ##   #,  ,#        
             '#######'   ##     ##  '#######'  #'      '#     #####' # '####'        



                  #######################################################
                  #                        -***-                        #
                  #          Department of theory and spectroscopy      #
                  #    Directorship and core code : Frank Neese         #
                  #        Max Planck Institute fuer Kohlenforschung    #
                  #                Kaiser Wilhelm Platz 1               #
                  #                 D-45470 Muelheim/Ruhr               #
                  #                      Germany                        #
                  #                                                     #
                  #                  All rights reserved                #
                  #                        -***-                        #
                  #######################################################


                         Program Version 5.0.0 -  RELEASE  -
                                (SVN: $Rev: 19529$)
                ($Date: 2021-06-28 11:36:33 +0200 (Mo, 28 Jun 2021) $)


 With contributions from (in alphabetic order):
   Daniel Aravena         : Magnetic Suceptibility
   Michael Atanasov       : Ab Initio Ligand Field Theory (pilot matlab implementation)
   Alexander A. Auer      : GIAO ZORA, VPT2 properties, NMR spectrum
   Ute Becker             : Parallelization
   Giovanni Bistoni       : ED, misc. LED, open-shell LED, HFLD
   Martin Brehm           : Molecular dynamics
   Dmytro Bykov           : SCF Hessian
   Vijay G. Chilkuri      : MRCI spin determinant printing, contributions to CSF-ICE
   Dipayan Datta          : RHF DLPNO-CCSD density
   Achintya Kumar Dutta   : EOM-CC, STEOM-CC
   Dmitry Ganyushin       : Spin-Orbit,Spin-Spin,Magnetic field MRCI
   Miquel Garcia          : C-PCM Hessian, Gaussian charge scheme
   Yang Guo               : DLPNO-NEVPT2, F12-NEVPT2, CIM, IAO-localization
   Andreas Hansen         : Spin unrestricted coupled pair/coupled cluster methods
   Benjamin Helmich-Paris : MC-RPA, TRAH-SCF, COSX integrals
   Lee Huntington         : MR-EOM, pCC
   Robert Izsak           : Overlap fitted RIJCOSX, COSX-SCS-MP3, EOM
   Marcus Kettner         : VPT2
   Christian Kollmar      : KDIIS, OOCD, Brueckner-CCSD(T), CCSD density, CASPT2, CASPT2-K
   Simone Kossmann        : Meta GGA functionals, TD-DFT gradient, OOMP2, MP2 Hessian
   Martin Krupicka        : Initial AUTO-CI
   Lucas Lang             : DCDCAS
   Marvin Lechner         : AUTO-CI (C++ implementation), FIC-MRCC
   Dagmar Lenk            : GEPOL surface, SMD
   Dimitrios Liakos       : Extrapolation schemes; Compound Job, initial MDCI parallelization
   Dimitrios Manganas     : Further ROCIS development; embedding schemes
   Dimitrios Pantazis     : SARC Basis sets
   Anastasios Papadopoulos: AUTO-CI, single reference methods and gradients
   Taras Petrenko         : DFT Hessian,TD-DFT gradient, ASA, ECA, R-Raman, ABS, FL, XAS/XES, NRVS
   Peter Pinski           : DLPNO-MP2, DLPNO-MP2 Gradient
   Christoph Reimann      : Effective Core Potentials
   Marius Retegan         : Local ZFS, SOC
   Christoph Riplinger    : Optimizer, TS searches, QM/MM, DLPNO-CCSD(T), (RO)-DLPNO pert. Triples
   Tobias Risthaus        : Range-separated hybrids, TD-DFT gradient, RPA, STAB
   Michael Roemelt        : Original ROCIS implementation
   Masaaki Saitow         : Open-shell DLPNO-CCSD energy and density
   Barbara Sandhoefer     : DKH picture change effects
   Avijit Sen             : IP-ROCIS
   Kantharuban Sivalingam : CASSCF convergence, NEVPT2, FIC-MRCI
   Bernardo de Souza      : ESD, SOC TD-DFT
   Georgi Stoychev        : AutoAux, RI-MP2 NMR
   Willem Van den Heuvel  : Paramagnetic NMR
   Boris Wezisla          : Elementary symmetry handling
   Frank Wennmohs         : Technical directorship


 We gratefully acknowledge several colleagues who have allowed us to
 interface, adapt or use parts of their codes:
   Stefan Grimme, W. Hujo, H. Kruse, P. Pracht,  : VdW corrections, initial TS optimization,
                  C. Bannwarth, S. Ehlert          DFT functionals, gCP, sTDA/sTD-DF
   Ed Valeev, F. Pavosevic, A. Kumar             : LibInt (2-el integral package), F12 methods
   Garnet Chan, S. Sharma, J. Yang, R. Olivares  : DMRG
   Ulf Ekstrom                                   : XCFun DFT Library
   Mihaly Kallay                                 : mrcc  (arbitrary order and MRCC methods)
   Jiri Pittner, Ondrej Demel                    : Mk-CCSD
   Frank Weinhold                                : gennbo (NPA and NBO analysis)
   Christopher J. Cramer and Donald G. Truhlar   : smd solvation model
   Lars Goerigk                                  : TD-DFT with DH, B97 family of functionals
   V. Asgeirsson, H. Jonsson                     : NEB implementation
   FAccTs GmbH                                   : IRC, NEB, NEB-TS, DLPNO-Multilevel, CI-OPT
                                                   MM, QMMM, 2- and 3-layer-ONIOM, Crystal-QMMM,
                                                   LR-CPCM, SF, NACMEs, symmetry and pop. for TD-DFT,
                                                   nearIR, NL-DFT gradient (VV10), updates on ESD,
                                                   ML-optimized integration grids
   S Lehtola, MJT Oliveira, MAL Marques          : LibXC Library
   Liviu Ungur et al                             : ANISO software


 Your calculation uses the libint2 library for the computation of 2-el integrals
 For citations please refer to: http://libint.valeyev.net

 Your ORCA version has been built with support for libXC version: 5.1.0
 For citations please refer to: https://tddft.org/programs/libxc/

 This ORCA versions uses:
   CBLAS   interface :  Fast vector & matrix operations
   LAPACKE interface :  Fast linear algebra routines
   SCALAPACK package :  Parallel linear algebra routines
   Shared memory     :  Shared parallel matrices
   BLAS/LAPACK       :  OpenBLAS 0.3.15  USE64BITINT DYNAMIC_ARCH NO_AFFINITY SkylakeX SINGLE_THREADED
        Core in use  :  SkylakeX
   Copyright (c) 2011-2014, The OpenBLAS Project




***************************************
The coordinates will be read from file: opt.xyz
***************************************


================================================================================

----- Orbital basis set information -----
Your calculation utilizes the basis: def2-SVP
   F. Weigend and R. Ahlrichs, Phys. Chem. Chem. Phys. 7, 3297 (2005).

================================================================================
                                        WARNINGS
                       Please study these warnings very carefully!
================================================================================

INFO   : Checking CIS options ...

WARNING: CIS/ROCIS methods need fully converged wavefunctions
  ===> : Setting SCFConvForced true
         You can overwrite this default with %scf ConvForced false 


INFO   : the flag for use of the SHARK integral package has been found!

================================================================================
                                       INPUT FILE
================================================================================
NAME = /scratch/001_563/001.inp
|  1> !RHF def2-SVP TightSCF pal8
|  2> 
|  3> %cis
|  4>  nroots 10
|  5> end
|  6> 
|  7> *xyzfile 0 1 opt.xyz
|  8> 
|  9> 
| 10> 
| 11> 
| 12>                          ****END OF INPUT****
================================================================================

                       ****************************
                       * Single Point Calculation *
                       ****************************

---------------------------------
CARTESIAN COORDINATES (ANGSTROEM)
---------------------------------
  C      0.206559    1.124019   -1.697833
  H      0.856837    1.997572   -1.618668
  C      0.753214   -0.159371   -1.631637
  H      1.828161   -0.288450   -1.494000
  C     -0.079891   -1.277566   -1.716091
  H      0.347307   -2.280626   -1.652456
  C     -1.459602   -1.113160   -1.865689
  H     -2.110811   -1.988149   -1.926845
  C     -2.006920    0.171787   -1.930405
  H     -3.085827    0.301336   -2.043220
  C     -1.173091    1.290589   -1.847494
  H     -1.600632    2.294859   -1.892973
  C      1.459529    1.113177    1.866168
  H      2.110681    1.988182    1.927707
  C      2.006839   -0.171760    1.931154
  H      3.085688   -0.301291    2.044559
  C      1.173082   -1.290581    1.847770
  H      1.600618   -2.294843    1.893472
  C     -0.206488   -1.124035    1.697358
  H     -0.856716   -1.997590    1.617805
  C     -0.753134    0.159343    1.630895
  H     -1.828002    0.288398    1.492636
  C      0.079897    1.277556    1.715823
  H     -0.347296    2.280604    1.651965

----------------------------
CARTESIAN COORDINATES (A.U.)
----------------------------
  NO LB      ZA    FRAG     MASS         X           Y           Z
   0 C     6.0000    0    12.011    0.390340    2.124088   -3.208439
   1 H     1.0000    0     1.008    1.619187    3.774864   -3.058840
   2 C     6.0000    0    12.011    1.423368   -0.301167   -3.083348
   3 H     1.0000    0     1.008    3.454723   -0.545091   -2.823250
   4 C     6.0000    0    12.011   -0.150972   -2.414250   -3.242942
   5 H     1.0000    0     1.008    0.656315   -4.309758   -3.122689
   6 C     6.0000    0    12.011   -2.758247   -2.103568   -3.525642
   7 H     1.0000    0     1.008   -3.988855   -3.757058   -3.641208
   8 C     6.0000    0    12.011   -3.792528    0.324630   -3.647936
   9 H     1.0000    0     1.008   -5.831369    0.569442   -3.861126
  10 C     6.0000    0    12.011   -2.216821    2.438860   -3.491258
  11 H     1.0000    0     1.008   -3.024757    4.336656   -3.577201
  12 C     6.0000    0    12.011    2.758110    2.103599    3.526547
  13 H     1.0000    0     1.008    3.988609    3.757120    3.642839
  14 C     6.0000    0    12.011    3.792377   -0.324579    3.649352
  15 H     1.0000    0     1.008    5.831104   -0.569357    3.863656
  16 C     6.0000    0    12.011    2.216804   -2.438845    3.491779
  17 H     1.0000    0     1.008    3.024730   -4.336626    3.578143
  18 C     6.0000    0    12.011   -0.390206   -2.124118    3.207542
  19 H     1.0000    0     1.008   -1.618958   -3.774899    3.057209
  20 C     6.0000    0    12.011   -1.423218    0.301116    3.081944
  21 H     1.0000    0     1.008   -3.454424    0.544993    2.820673
  22 C     6.0000    0    12.011    0.150983    2.414231    3.242435
  23 H     1.0000    0     1.008   -0.656294    4.309717    3.121761

--------------------------------
INTERNAL COORDINATES (ANGSTROEM)
--------------------------------
 C      0   0   0     0.000000000000     0.00000000     0.00000000
 H      1   0   0     1.091890010378     0.00000000     0.00000000
 C      1   2   0     1.396532137000   119.91159794     0.00000000
 H      3   1   2     1.091382864280   120.01384775     0.42433411
 C      3   1   2     1.396981163632   119.95267844   179.20265183
 H      5   3   1     1.092097369873   119.89258101   180.71619166
 C      5   3   1     1.397501297151   120.07113262   359.95093903
 H      7   5   3     1.092437699936   120.01883696   180.29237186
 C      7   5   3     1.398153648960   119.96999410   359.97569983
 H      9   7   5     1.092498155922   120.02295260   180.25123985
 C      1   2   3     1.397704840379   120.01845618   179.15675419
 H     11   1   2     1.092436610162   120.02138408     0.46536980
 C      2   1   3     3.645473806156    88.49168204   291.66174577
 H     13   2   1     1.092437805438    87.59732042   179.75045828
 C     13   2   1     1.398153763514   109.39657104    58.68938508
 H     15  13   2     1.092498163853   120.02306989    98.81024078
 C     15  13   2     1.397807391804   119.95590870   278.96055430
 H     17  15  13     1.092436666317   119.99175525   179.69502186
 C     17  15  13     1.397703727762   119.98552700     0.10354967
 H     19  17  15     1.091889785200   120.01920023   179.12451245
 C     19  17  15     1.396531130192   120.06467505   359.96971635
 H     21  19  17     1.091380670013   120.01362449   178.72979524
 C     21  19  17     1.396979795041   119.95282683   359.95406669
 H     23  21  19     1.092097485454   119.89222639   179.28303697

---------------------------
INTERNAL COORDINATES (A.U.)
---------------------------
 C      0   0   0     0.000000000000     0.00000000     0.00000000
 H      1   0   0     2.063373087980     0.00000000     0.00000000
 C      1   2   0     2.639063276151   119.91159794     0.00000000
 H      3   1   2     2.062414720744   120.01384775     0.42433411
 C      3   1   2     2.639911813510   119.95267844   179.20265183
 H      5   3   1     2.063764940636   119.89258101   180.71619166
 C      5   3   1     2.640894723415   120.07113262   359.95093903
 H      7   5   3     2.064408071249   120.01883696   180.29237186
 C      7   5   3     2.642127489677   119.96999410   359.97569983
 H      9   7   5     2.064522316507   120.02295260   180.25123985
 C      1   2   3     2.641279364372   120.01845618   179.15675419
 H     11   1   2     2.064406011875   120.02138408     0.46536980
 C      2   1   3     6.888947122019    88.49168204   291.66174577
 H     13   2   1     2.064408270621    87.59732042   179.75045828
 C     13   2   1     2.642127706154   109.39657104    58.68938508
 H     15  13   2     2.064522331494   120.02306989    98.81024078
 C     15  13   2     2.641473158481   119.95590870   278.96055430
 H     17  15  13     2.064406117993   119.99175525   179.69502186
 C     17  15  13     2.641277261831   119.98552700     0.10354967
 H     19  17  15     2.063372662453   120.01920023   179.12451245
 C     19  17  15     2.639061373559   120.06467505   359.96971635
 H     21  19  17     2.062410574180   120.01362449   178.72979524
 C     21  19  17     2.639909227249   119.95282683   359.95406669
 H     23  21  19     2.063765159053   119.89222639   179.28303697

---------------------
BASIS SET INFORMATION
---------------------
There are 2 groups of distinct atoms

 Group   1 Type C   : 7s4p1d contracted to 3s2p1d pattern {511/31/1}
 Group   2 Type H   : 4s1p contracted to 2s1p pattern {31/1}

Atom   0C    basis set group =>   1
Atom   1H    basis set group =>   2
Atom   2C    basis set group =>   1
Atom   3H    basis set group =>   2
Atom   4C    basis set group =>   1
Atom   5H    basis set group =>   2
Atom   6C    basis set group =>   1
Atom   7H    basis set group =>   2
Atom   8C    basis set group =>   1
Atom   9H    basis set group =>   2
Atom  10C    basis set group =>   1
Atom  11H    basis set group =>   2
Atom  12C    basis set group =>   1
Atom  13H    basis set group =>   2
Atom  14C    basis set group =>   1
Atom  15H    basis set group =>   2
Atom  16C    basis set group =>   1
Atom  17H    basis set group =>   2
Atom  18C    basis set group =>   1
Atom  19H    basis set group =>   2
Atom  20C    basis set group =>   1
Atom  21H    basis set group =>   2
Atom  22C    basis set group =>   1
Atom  23H    basis set group =>   2
--------------------------------------------------------------------------
WARNING: There was an error initializing an OpenFabrics device.

  Local host:   cnode08
  Local device: mlx5_0
--------------------------------------------------------------------------


           ************************************************************
           *        Program running with 8 parallel MPI-processes     *
           *              working on a common directory               *
           ************************************************************
------------------------------------------------------------------------------
                           ORCA GTO INTEGRAL CALCULATION
------------------------------------------------------------------------------
------------------------------------------------------------------------------
                   ___                                                        
                  /   \      - P O W E R E D   B Y -                         
                 /     \                                                     
                 |  |  |   _    _      __       _____    __    __             
                 |  |  |  | |  | |    /  \     |  _  \  |  |  /  |          
                  \  \/   | |  | |   /    \    | | | |  |  | /  /          
                 / \  \   | |__| |  /  /\  \   | |_| |  |  |/  /          
                |  |  |   |  __  | /  /__\  \  |    /   |      \           
                |  |  |   | |  | | |   __   |  |    \   |  |\   \          
                \     /   | |  | | |  |  |  |  | |\  \  |  | \   \       
                 \___/    |_|  |_| |__|  |__|  |_| \__\ |__|  \__/        
                                                                              
                      - O R C A' S   B I G   F R I E N D -                    
                                      &                                       
                       - I N T E G R A L  F E E D E R -                       
                                                                              
 v1 FN, 2020, v2 2021                                                         
------------------------------------------------------------------------------


Reading SHARK input file /scratch/001_563/001.SHARKINP.tmp ... ok
----------------------
SHARK INTEGRAL PACKAGE
----------------------

Number of atoms                             ...     24
Number of basis functions                   ...    228
Number of shells                            ...    108
Maximum angular momentum                    ...      2
Integral batch strategy                     ... SHARK/LIBINT Hybrid
RI-J (if used) integral strategy            ... SPLIT-RIJ (Revised 2003 algorithm where possible)
Printlevel                                  ...      1
Contraction scheme used                     ... SEGMENTED contraction
Coulomb Range Separation                    ... NOT USED
Exchange Range Separation                   ... NOT USED
Finite Nucleus Model                        ... NOT USED
Auxiliary Coulomb fitting basis             ... NOT available
Auxiliary J/K fitting basis                 ... NOT available
Auxiliary Correlation fitting basis         ... NOT available
Auxiliary 'external' fitting basis          ... NOT available
Integral threshold                          ...     2.500000e-11
Primitive cut-off                           ...     2.500000e-12
Primitive pair pre-selection threshold      ...     2.500000e-12

Calculating pre-screening integrals         ... done (  0.0 sec) Dimension = 108
Organizing shell pair data                  ... done (  0.0 sec)
Shell pair information
Total number of shell pairs                 ...      5886
Shell pairs after pre-screening             ...      5389
Total number of primitive shell pairs       ...     21102
Primitive shell pairs kept                  ...     13379
          la=0 lb=0:   1691 shell pairs
          la=1 lb=0:   1982 shell pairs
          la=1 lb=1:    619 shell pairs
          la=2 lb=0:    634 shell pairs
          la=2 lb=1:    392 shell pairs
          la=2 lb=2:     71 shell pairs

Calculating one electron integrals          ... done (  0.0 sec)
Calculating Nuclear repulsion               ... done (  0.0 sec) ENN=    626.280188258010 Eh

SHARK setup successfully completed in   0.1 seconds

Maximum memory used throughout the entire GTOINT-calculation: 8.9 MB
[cnode08:261920] 7 more processes have sent help message help-mpi-btl-openib.txt / error in device init
[cnode08:261920] Set MCA parameter "orte_base_help_aggregate" to 0 to see all help / error messages
--------------------------------------------------------------------------
WARNING: There was an error initializing an OpenFabrics device.

  Local host:   cnode08
  Local device: mlx5_0
--------------------------------------------------------------------------


           ************************************************************
           *        Program running with 8 parallel MPI-processes     *
           *              working on a common directory               *
           ************************************************************
-------------------------------------------------------------------------------
                                 ORCA SCF
-------------------------------------------------------------------------------

------------
SCF SETTINGS
------------
Hamiltonian:
 Ab initio Hamiltonian  Method          .... Hartree-Fock(GTOs)


General Settings:
 Integral files         IntName         .... /scratch/001_563/001
 Hartree-Fock type      HFTyp           .... RHF
 Total Charge           Charge          ....    0
 Multiplicity           Mult            ....    1
 Number of Electrons    NEL             ....   84
 Basis Dimension        Dim             ....  228
 Nuclear Repulsion      ENuc            ....    626.2801882580 Eh

Convergence Acceleration:
 DIIS                   CNVDIIS         .... on
   Start iteration      DIISMaxIt       ....    12
   Startup error        DIISStart       ....  0.200000
   # of expansion vecs  DIISMaxEq       ....     5
   Bias factor          DIISBfac        ....   1.050
   Max. coefficient     DIISMaxC        ....  10.000
 Trust-Rad. Augm. Hess. CNVTRAH         .... auto
   Auto Start mean grad. ratio tolernc. ....  1.125000
   Auto Start start iteration           ....    20
   Auto Start num. interpolation iter.  ....    10
   Max. Number of Micro iterations      ....    16
   Max. Number of Macro iterations      .... Maxiter - #DIIS iter
   Number of Davidson start vectors     ....     2
   Converg. threshold I  (grad. norm)   ....   1.000e-05
   Converg. threshold II (energy diff.) ....   1.000e-08
   Grad. Scal. Fac. for Micro threshold ....   0.100
   Minimum threshold for Micro iter.    ....   0.010
   NR start threshold (gradient norm)   ....   0.001
   Initial trust radius                 ....   0.400
   Minimum AH scaling param. (alpha)    ....   1.000
   Maximum AH scaling param. (alpha)    .... 1000.000
   Orbital update algorithm             .... Taylor
   White noise on init. David. guess    .... on
   Maximum white noise                  ....   0.010
   Quad. conv. algorithm                .... NR
 SOSCF                  CNVSOSCF        .... on
   Start iteration      SOSCFMaxIt      ....   150
   Startup grad/error   SOSCFStart      ....  0.003300
 Level Shifting         CNVShift        .... on
   Level shift para.    LevelShift      ....    0.2500
   Turn off err/grad.   ShiftErr        ....    0.0010
 Zerner damping         CNVZerner       .... off
 Static damping         CNVDamp         .... on
   Fraction old density DampFac         ....    0.7000
   Max. Damping (<1)    DampMax         ....    0.9800
   Min. Damping (>=0)   DampMin         ....    0.0000
   Turn off err/grad.   DampErr         ....    0.1000
 Fernandez-Rico         CNVRico         .... off

SCF Procedure:
 Maximum # iterations   MaxIter         ....   125
 SCF integral mode      SCFMode         .... Direct
   Integral package                     .... SHARK and LIBINT hybrid scheme
 Reset frequency        DirectResetFreq ....    20
 Integral Threshold     Thresh          ....  2.500e-11 Eh
 Primitive CutOff       TCut            ....  2.500e-12 Eh

Convergence Tolerance:
 Convergence Check Mode ConvCheckMode   .... Total+1el-Energy
 Convergence forced     ConvForced      .... 1
 Energy Change          TolE            ....  1.000e-08 Eh
 1-El. energy change                    ....  1.000e-05 Eh
 Orbital Gradient       TolG            ....  1.000e-05
 Orbital Rotation angle TolX            ....  1.000e-05
 DIIS Error             TolErr          ....  5.000e-07


Diagonalization of the overlap matrix:
Smallest eigenvalue                        ... 2.817e-04
Time for diagonalization                   ...    0.006 sec
Threshold for overlap eigenvalues          ... 1.000e-08
Number of eigenvalues below threshold      ... 0
Time for construction of square roots      ...    0.005 sec
Total time needed                          ...    0.011 sec

Time for model grid setup =    0.085 sec

------------------------------
INITIAL GUESS: MODEL POTENTIAL
------------------------------
Loading Hartree-Fock densities                     ... done
Calculating cut-offs                               ... done
Initializing the effective Hamiltonian             ... done
Setting up the integral package (SHARK)            ... done
Starting the Coulomb interaction                   ... done (   0.0 sec)
Reading the grid                                   ... done
Mapping shells                                     ... done
Starting the XC term evaluation                    ... done (   0.0 sec)
Transforming the Hamiltonian                       ... done (   0.0 sec)
Diagonalizing the Hamiltonian                      ... done (   0.0 sec)
Back transforming the eigenvectors                 ... done (   0.0 sec)
Now organizing SCF variables                       ... done
                      ------------------
                      INITIAL GUESS DONE (   0.2 sec)
                      ------------------
--------------
SCF ITERATIONS
--------------
ITER       Energy         Delta-E        Max-DP      RMS-DP      [F,P]     Damp
               ***  Starting incremental Fock matrix formation  ***
  0   -460.6389232321   0.000000000000 0.05512201  0.00271264  0.1561146 0.7000
  1   -460.7846252437  -0.145702011504 0.04527598  0.00217844  0.1042708 0.7000
                               ***Turning on DIIS***
  2   -460.8754755624  -0.090850318760 0.11247217  0.00514788  0.0637682 0.0000
  3   -460.1475753839   0.727900178514 0.01726050  0.00073008  0.0240036 0.0000
[cnode08:261980] 7 more processes have sent help message help-mpi-btl-openib.txt / error in device init
[cnode08:261980] Set MCA parameter "orte_base_help_aggregate" to 0 to see all help / error messages
  4   -461.0373799490  -0.889804565128 0.00583704  0.00030053  0.0042947 0.0000
                      *** Initiating the SOSCF procedure ***
                           *** Shutting down DIIS ***
                      *** Re-Reading the Fockian *** 
                      *** Removing any level shift *** 
ITER      Energy       Delta-E        Grad      Rot      Max-DP    RMS-DP
  5   -461.06185099  -0.0244710393  0.001704  0.001704  0.001788  0.000113
               *** Restarting incremental Fock matrix formation ***
  6   -461.06432860  -0.0024776157  0.000410  0.000413  0.000585  0.000034
  7   -461.06433323  -0.0000046249  0.000124  0.000207  0.000365  0.000018
  8   -461.06433384  -0.0000006095  0.000061  0.000086  0.000077  0.000004
  9   -461.06433393  -0.0000000878  0.000011  0.000029  0.000019  0.000001
 10   -461.06433393  -0.0000000083  0.000007  0.000042  0.000021  0.000001
                  ***Gradient check signals convergence***
              ***Rediagonalizing the Fockian in SOSCF/NRSCF***

               *****************************************************
               *                     SUCCESS                       *
               *           SCF CONVERGED AFTER  11 CYCLES          *
               *****************************************************


----------------
TOTAL SCF ENERGY
----------------

Total Energy       :         -461.06433394 Eh          -12546.19836 eV

Components:
Nuclear Repulsion  :          626.28018826 Eh           17041.95032 eV
Electronic Energy  :        -1087.34452220 Eh          -29588.14868 eV
One Electron Energy:        -1865.08434516 Eh          -50751.52519 eV
Two Electron Energy:          777.73982296 Eh           21163.37651 eV

Virial components:
Potential Energy   :         -919.44663609 Eh          -25019.41493 eV
Kinetic Energy     :          458.38230215 Eh           12473.21657 eV
Virial Ratio       :            2.00585108


---------------
SCF CONVERGENCE
---------------

  Last Energy change         ...   -5.9163e-09  Tolerance :   1.0000e-08
  Last MAX-Density change    ...    3.3196e-06  Tolerance :   1.0000e-07
  Last RMS-Density change    ...    1.9762e-07  Tolerance :   5.0000e-09
  Last Orbital Gradient      ...    1.7058e-06  Tolerance :   1.0000e-05
  Last Orbital Rotation      ...    4.9023e-06  Tolerance :   1.0000e-05

             **** THE GBW FILE WAS UPDATED (/scratch/001_563/001.gbw) ****
             **** DENSITY /scratch/001_563/001.scfp WAS UPDATED ****
             **** ENERGY FILE WAS UPDATED (/scratch/001_563/001.en.tmp) ****
             **** THE GBW FILE WAS UPDATED (/scratch/001_563/001.gbw) ****
             **** DENSITY /scratch/001_563/001.scfp WAS UPDATED ****
----------------
ORBITAL ENERGIES
----------------

  NO   OCC          E(Eh)            E(eV) 
   0   2.0000     -11.236037      -305.7481 
   1   2.0000     -11.236021      -305.7477 
   2   2.0000     -11.234997      -305.7198 
   3   2.0000     -11.234968      -305.7190 
   4   2.0000     -11.234691      -305.7115 
   5   2.0000     -11.234634      -305.7099 
   6   2.0000     -11.233857      -305.6888 
   7   2.0000     -11.233847      -305.6885 
   8   2.0000     -11.233631      -305.6826 
   9   2.0000     -11.233620      -305.6823 
  10   2.0000     -11.232006      -305.6384 
  11   2.0000     -11.231986      -305.6379 
  12   2.0000      -1.134636       -30.8750 
  13   2.0000      -1.130492       -30.7622 
  14   2.0000      -0.998535       -27.1715 
  15   2.0000      -0.996877       -27.1264 
  16   2.0000      -0.996395       -27.1133 
  17   2.0000      -0.995051       -27.0767 
  18   2.0000      -0.810131       -22.0448 
  19   2.0000      -0.809812       -22.0361 
  20   2.0000      -0.809630       -22.0312 
  21   2.0000      -0.809020       -22.0146 
  22   2.0000      -0.701863       -19.0987 
  23   2.0000      -0.700300       -19.0561 
  24   2.0000      -0.629970       -17.1424 
  25   2.0000      -0.629840       -17.1388 
  26   2.0000      -0.616500       -16.7758 
  27   2.0000      -0.616155       -16.7664 
  28   2.0000      -0.583073       -15.8662 
  29   2.0000      -0.582216       -15.8429 
  30   2.0000      -0.581805       -15.8317 
  31   2.0000      -0.581059       -15.8114 
  32   2.0000      -0.512892       -13.9565 
  33   2.0000      -0.490264       -13.3408 
  34   2.0000      -0.490237       -13.3400 
  35   2.0000      -0.490214       -13.3394 
  36   2.0000      -0.490052       -13.3350 
  37   2.0000      -0.479614       -13.0510 
  38   2.0000      -0.346220        -9.4211 
  39   2.0000      -0.332119        -9.0374 
  40   2.0000      -0.329295        -8.9606 
  41   2.0000      -0.317826        -8.6485 
  42   0.0000       0.131478         3.5777 
  43   0.0000       0.136911         3.7255 
  44   0.0000       0.138081         3.7574 
  45   0.0000       0.142419         3.8754 
  46   0.0000       0.171458         4.6656 
  47   0.0000       0.196886         5.3576 
  48   0.0000       0.205572         5.5939 
  49   0.0000       0.213970         5.8224 
  50   0.0000       0.234200         6.3729 
  51   0.0000       0.238758         6.4969 
  52   0.0000       0.252674         6.8756 
  53   0.0000       0.255965         6.9652 
  54   0.0000       0.265979         7.2377 
  55   0.0000       0.272712         7.4209 
  56   0.0000       0.287002         7.8097 
  57   0.0000       0.292756         7.9663 
  58   0.0000       0.349730         9.5166 
  59   0.0000       0.352233         9.5848 
  60   0.0000       0.449662        12.2359 
  61   0.0000       0.455128        12.3847 
  62   0.0000       0.457659        12.4535 
  63   0.0000       0.459580        12.5058 
  64   0.0000       0.462934        12.5971 
  65   0.0000       0.475176        12.9302 
  66   0.0000       0.477401        12.9908 
  67   0.0000       0.478615        13.0238 
  68   0.0000       0.480963        13.0877 
  69   0.0000       0.534770        14.5518 
  70   0.0000       0.538014        14.6401 
  71   0.0000       0.579321        15.7641 
  72   0.0000       0.589189        16.0326 
  73   0.0000       0.599280        16.3072 
  74   0.0000       0.611120        16.6294 
  75   0.0000       0.621061        16.8999 
  76   0.0000       0.636929        17.3317 
  77   0.0000       0.646305        17.5869 
  78   0.0000       0.653827        17.7915 
  79   0.0000       0.659363        17.9422 
  80   0.0000       0.679367        18.4865 
  81   0.0000       0.710947        19.3459 
  82   0.0000       0.717526        19.5249 
  83   0.0000       0.718960        19.5639 
  84   0.0000       0.719078        19.5671 
  85   0.0000       0.742884        20.2149 
  86   0.0000       0.744356        20.2549 
  87   0.0000       0.749733        20.4013 
  88   0.0000       0.750001        20.4086 
  89   0.0000       0.802057        21.8251 
  90   0.0000       0.807581        21.9754 
  91   0.0000       0.857745        23.3404 
  92   0.0000       0.861219        23.4350 
  93   0.0000       0.875240        23.8165 
  94   0.0000       0.878063        23.8933 
  95   0.0000       0.880995        23.9731 
  96   0.0000       0.888513        24.1777 
  97   0.0000       0.894252        24.3338 
  98   0.0000       0.897807        24.4306 
  99   0.0000       0.900395        24.5010 
 100   0.0000       0.903667        24.5900 
 101   0.0000       0.912541        24.8315 
 102   0.0000       0.945474        25.7277 
 103   0.0000       0.945879        25.7387 
 104   0.0000       0.963311        26.2130 
 105   0.0000       0.963957        26.2306 
 106   0.0000       0.972467        26.4622 
 107   0.0000       0.974716        26.5234 
 108   0.0000       0.975217        26.5370 
 109   0.0000       0.986112        26.8335 
 110   0.0000       1.005747        27.3678 
 111   0.0000       1.014681        27.6109 
 112   0.0000       1.017765        27.6948 
 113   0.0000       1.043316        28.3901 
 114   0.0000       1.044096        28.4113 
 115   0.0000       1.056752        28.7557 
 116   0.0000       1.065989        29.0070 
 117   0.0000       1.119516        30.4636 
 118   0.0000       1.145307        31.1654 
 119   0.0000       1.150377        31.3033 
 120   0.0000       1.171767        31.8854 
 121   0.0000       1.180276        32.1169 
 122   0.0000       1.217730        33.1361 
 123   0.0000       1.250580        34.0300 
 124   0.0000       1.276877        34.7456 
 125   0.0000       1.312959        35.7274 
 126   0.0000       1.415391        38.5148 
 127   0.0000       1.418966        38.6120 
 128   0.0000       1.471006        40.0281 
 129   0.0000       1.503738        40.9188 
 130   0.0000       1.503846        40.9217 
 131   0.0000       1.508463        41.0474 
 132   0.0000       1.510400        41.1001 
 133   0.0000       1.513964        41.1970 
 134   0.0000       1.515215        41.2311 
 135   0.0000       1.533686        41.7337 
 136   0.0000       1.537745        41.8442 
 137   0.0000       1.540987        41.9324 
 138   0.0000       1.571027        42.7498 
 139   0.0000       1.577629        42.9295 
 140   0.0000       1.590827        43.2886 
 141   0.0000       1.616036        43.9746 
 142   0.0000       1.781301        48.4717 
 143   0.0000       1.784254        48.5520 
 144   0.0000       1.923362        52.3373 
 145   0.0000       1.930297        52.5260 
 146   0.0000       1.932016        52.5728 
 147   0.0000       1.936369        52.6913 
 148   0.0000       1.941076        52.8194 
 149   0.0000       1.955971        53.2247 
 150   0.0000       2.029381        55.2223 
 151   0.0000       2.029956        55.2379 
 152   0.0000       2.032532        55.3080 
 153   0.0000       2.036362        55.4122 
 154   0.0000       2.041760        55.5591 
 155   0.0000       2.045337        55.6565 
 156   0.0000       2.053675        55.8833 
 157   0.0000       2.060519        56.0696 
 158   0.0000       2.061161        56.0870 
 159   0.0000       2.064346        56.1737 
 160   0.0000       2.066131        56.2223 
 161   0.0000       2.079165        56.5770 
 162   0.0000       2.093016        56.9539 
 163   0.0000       2.101364        57.1810 
 164   0.0000       2.101783        57.1924 
 165   0.0000       2.113807        57.5196 
 166   0.0000       2.115269        57.5594 
 167   0.0000       2.137563        58.1660 
 168   0.0000       2.224826        60.5406 
 169   0.0000       2.245086        61.0919 
 170   0.0000       2.278755        62.0081 
 171   0.0000       2.279741        62.0349 
 172   0.0000       2.281189        62.0743 
 173   0.0000       2.284123        62.1541 
 174   0.0000       2.286940        62.2308 
 175   0.0000       2.286963        62.2314 
 176   0.0000       2.295867        62.4737 
 177   0.0000       2.301418        62.6248 
 178   0.0000       2.312857        62.9360 
 179   0.0000       2.326478        63.3067 
 180   0.0000       2.379119        64.7391 
 181   0.0000       2.407067        65.4996 
 182   0.0000       2.463567        67.0371 
 183   0.0000       2.464386        67.0594 
 184   0.0000       2.483171        67.5705 
 185   0.0000       2.483833        67.5885 
 186   0.0000       2.507194        68.2242 
 187   0.0000       2.536505        69.0218 
 188   0.0000       2.631389        71.6037 
 189   0.0000       2.635503        71.7157 
 190   0.0000       2.636144        71.7331 
 191   0.0000       2.652671        72.1828 
 192   0.0000       2.654745        72.2393 
 193   0.0000       2.655091        72.2487 
 194   0.0000       2.655719        72.2658 
 195   0.0000       2.656509        72.2873 
 196   0.0000       2.672754        72.7293 
 197   0.0000       2.673508        72.7499 
 198   0.0000       2.674442        72.7753 
 199   0.0000       2.676983        72.8444 
 200   0.0000       2.892223        78.7014 
 201   0.0000       2.893113        78.7256 
 202   0.0000       2.942864        80.0794 
 203   0.0000       2.950323        80.2824 
 204   0.0000       2.960753        80.5662 
 205   0.0000       2.985082        81.2282 
 206   0.0000       2.992359        81.4262 
 207   0.0000       2.992632        81.4337 
 208   0.0000       3.076528        83.7166 
 209   0.0000       3.077050        83.7308 
 210   0.0000       3.077211        83.7352 
 211   0.0000       3.081922        83.8634 
 212   0.0000       3.085226        83.9533 
 213   0.0000       3.089392        84.0666 
 214   0.0000       3.228373        87.8485 
 215   0.0000       3.228728        87.8581 
 216   0.0000       3.229523        87.8798 
 217   0.0000       3.231008        87.9202 
 218   0.0000       3.243185        88.2515 
 219   0.0000       3.263357        88.8005 
 220   0.0000       3.492760        95.0428 
 221   0.0000       3.492782        95.0434 
 222   0.0000       3.494233        95.0829 
 223   0.0000       3.494256        95.0835 
 224   0.0000       3.624269        98.6214 
 225   0.0000       3.625758        98.6619 
 226   0.0000       4.049947       110.2047 
 227   0.0000       4.050541       110.2208 

                    ********************************
                    * MULLIKEN POPULATION ANALYSIS *
                    ********************************

-----------------------
MULLIKEN ATOMIC CHARGES
-----------------------
   0 C :   -0.023986
   1 H :    0.038900
   2 C :   -0.029734
   3 H :    0.042065
   4 C :   -0.029939
   5 H :    0.038644
   6 C :   -0.053986
   7 H :    0.039629
   8 C :   -0.046263
   9 H :    0.040438
  10 C :   -0.055077
  11 H :    0.039314
  12 C :   -0.053985
  13 H :    0.039627
  14 C :   -0.046250
  15 H :    0.040435
  16 C :   -0.055078
  17 H :    0.039310
  18 C :   -0.023985
  19 H :    0.038891
  20 C :   -0.029724
  21 H :    0.042063
  22 C :   -0.029946
  23 H :    0.038637
Sum of atomic charges:   -0.0000000

--------------------------------
MULLIKEN REDUCED ORBITAL CHARGES
--------------------------------
  0 C s       :     3.122406  s :     3.122406
      pz      :     0.977577  p :     2.857819
      px      :     0.939369
      py      :     0.940873
      dz2     :     0.003817  d :     0.043761
      dxz     :     0.005949
      dyz     :     0.004842
      dx2y2   :     0.014202
      dxy     :     0.014952
  1 H s       :     0.935948  s :     0.935948
      pz      :     0.004034  p :     0.025153
      px      :     0.008251
      py      :     0.012869
  2 C s       :     3.129015  s :     3.129015
      pz      :     0.972966  p :     2.857090
      px      :     0.934154
      py      :     0.949970
      dz2     :     0.003740  d :     0.043629
      dxz     :     0.003404
      dyz     :     0.007322
      dx2y2   :     0.014911
      dxy     :     0.014253
  3 H s       :     0.932620  s :     0.932620
      pz      :     0.004310  p :     0.025315
      px      :     0.018431
      py      :     0.002574
  4 C s       :     3.125795  s :     3.125795
      pz      :     0.981053  p :     2.860398
      px      :     0.945335
      py      :     0.934010
      dz2     :     0.003809  d :     0.043746
      dxz     :     0.006830
      dyz     :     0.003956
      dx2y2   :     0.014621
      dxy     :     0.014530
  5 H s       :     0.936227  s :     0.936227
      pz      :     0.003996  p :     0.025129
      px      :     0.004916
      py      :     0.016216
  6 C s       :     3.136093  s :     3.136093
      pz      :     0.993719  p :     2.874337
      px      :     0.944917
      py      :     0.935701
      dz2     :     0.003704  d :     0.043556
      dxz     :     0.005955
      dyz     :     0.004775
      dx2y2   :     0.014112
      dxy     :     0.015010
  7 H s       :     0.935203  s :     0.935203
      pz      :     0.004074  p :     0.025168
      px      :     0.008198
      py      :     0.012897
  8 C s       :     3.133757  s :     3.133757
      pz      :     0.989191  p :     2.868854
      px      :     0.929152
      py      :     0.950511
      dz2     :     0.003633  d :     0.043652
      dxz     :     0.003251
      dyz     :     0.007620
      dx2y2   :     0.015028
      dxy     :     0.014120
  9 H s       :     0.934400  s :     0.934400
      pz      :     0.004183  p :     0.025163
      px      :     0.018397
      py      :     0.002582
 10 C s       :     3.137218  s :     3.137218
      pz      :     0.993581  p :     2.874295
      px      :     0.948766
      py      :     0.931949
      dz2     :     0.003723  d :     0.043564
      dxz     :     0.006818
      dyz     :     0.003897
      dx2y2   :     0.014505
      dxy     :     0.014620
 11 H s       :     0.935524  s :     0.935524
      pz      :     0.004046  p :     0.025162
      px      :     0.004879
      py      :     0.016237
 12 C s       :     3.136090  s :     3.136090
      pz      :     0.993718  p :     2.874340
      px      :     0.944920
      py      :     0.935702
      dz2     :     0.003704  d :     0.043556
      dxz     :     0.005955
      dyz     :     0.004776
      dx2y2   :     0.014111
      dxy     :     0.015009
 13 H s       :     0.935205  s :     0.935205
      pz      :     0.004074  p :     0.025168
      px      :     0.008197
      py      :     0.012897
 14 C s       :     3.133743  s :     3.133743
      pz      :     0.989185  p :     2.868854
      px      :     0.929159
      py      :     0.950510
      dz2     :     0.003633  d :     0.043652
      dxz     :     0.003252
      dyz     :     0.007621
      dx2y2   :     0.015027
      dxy     :     0.014119
 15 H s       :     0.934402  s :     0.934402
      pz      :     0.004185  p :     0.025162
      px      :     0.018395
      py      :     0.002582
 16 C s       :     3.137217  s :     3.137217
      pz      :     0.993582  p :     2.874298
      px      :     0.948767
      py      :     0.931949
      dz2     :     0.003724  d :     0.043564
      dxz     :     0.006819
      dyz     :     0.003898
      dx2y2   :     0.014504
      dxy     :     0.014619
 17 H s       :     0.935528  s :     0.935528
      pz      :     0.004046  p :     0.025162
      px      :     0.004879
      py      :     0.016237
 18 C s       :     3.122397  s :     3.122397
      pz      :     0.977579  p :     2.857826
      px      :     0.939371
      py      :     0.940876
      dz2     :     0.003818  d :     0.043761
      dxz     :     0.005949
      dyz     :     0.004843
      dx2y2   :     0.014201
      dxy     :     0.014950
 19 H s       :     0.935957  s :     0.935957
      pz      :     0.004034  p :     0.025153
      px      :     0.008250
      py      :     0.012868
 20 C s       :     3.129008  s :     3.129008
      pz      :     0.972956  p :     2.857087
      px      :     0.934158
      py      :     0.949974
      dz2     :     0.003740  d :     0.043629
      dxz     :     0.003405
      dyz     :     0.007323
      dx2y2   :     0.014909
      dxy     :     0.014252
 21 H s       :     0.932621  s :     0.932621
      pz      :     0.004313  p :     0.025315
      px      :     0.018429
      py      :     0.002574
 22 C s       :     3.125798  s :     3.125798
      pz      :     0.981056  p :     2.860402
      px      :     0.945338
      py      :     0.934008
      dz2     :     0.003810  d :     0.043746
      dxz     :     0.006830
      dyz     :     0.003958
      dx2y2   :     0.014619
      dxy     :     0.014529
 23 H s       :     0.936235  s :     0.936235
      pz      :     0.003997  p :     0.025129
      px      :     0.004916
      py      :     0.016216


                     *******************************
                     * LOEWDIN POPULATION ANALYSIS *
                     *******************************

----------------------
LOEWDIN ATOMIC CHARGES
----------------------
   0 C :   -0.018832
   1 H :    0.025181
   2 C :   -0.016961
   3 H :    0.026642
   4 C :   -0.020789
   5 H :    0.024984
   6 C :   -0.032741
   7 H :    0.024965
   8 C :   -0.030858
   9 H :    0.025323
  10 C :   -0.031780
  11 H :    0.024879
  12 C :   -0.032744
  13 H :    0.024965
  14 C :   -0.030861
  15 H :    0.025323
  16 C :   -0.031785
  17 H :    0.024878
  18 C :   -0.018836
  19 H :    0.025177
  20 C :   -0.016954
  21 H :    0.026637
  22 C :   -0.020796
  23 H :    0.024981

-------------------------------
LOEWDIN REDUCED ORBITAL CHARGES
-------------------------------
  0 C s       :     2.855912  s :     2.855912
      pz      :     0.959787  p :     3.065161
      px      :     1.055040
      py      :     1.050334
      dz2     :     0.007204  d :     0.097759
      dxz     :     0.011187
      dyz     :     0.008580
      dx2y2   :     0.033789
      dxy     :     0.036999
  1 H s       :     0.907574  s :     0.907574
      pz      :     0.013719  p :     0.067244
      px      :     0.022099
      py      :     0.031426
  2 C s       :     2.855034  s :     2.855034
      pz      :     0.958048  p :     3.064362
      px      :     1.040602
      py      :     1.065712
      dz2     :     0.007068  d :     0.097566
      dxz     :     0.005324
      dyz     :     0.014366
      dx2y2   :     0.036954
      dxy     :     0.033854
  3 H s       :     0.905800  s :     0.905800
      pz      :     0.014127  p :     0.067557
      px      :     0.042938
      py      :     0.010492
  4 C s       :     2.856053  s :     2.856053
      pz      :     0.961875  p :     3.066990
      px      :     1.061022
      py      :     1.044092
      dz2     :     0.007208  d :     0.097746
      dxz     :     0.013198
      dyz     :     0.006555
      dx2y2   :     0.035472
      dxy     :     0.035313
  5 H s       :     0.907797  s :     0.907797
      pz      :     0.013724  p :     0.067219
      px      :     0.015296
      py      :     0.038199
  6 C s       :     2.855869  s :     2.855869
      pz      :     0.974944  p :     3.079293
      px      :     1.056178
      py      :     1.048170
      dz2     :     0.007068  d :     0.097578
      dxz     :     0.011235
      dyz     :     0.008513
      dx2y2   :     0.033593
      dxy     :     0.037169
  7 H s       :     0.907742  s :     0.907742
      pz      :     0.013963  p :     0.067293
      px      :     0.021914
      py      :     0.031416
  8 C s       :     2.856216  s :     2.856216
      pz      :     0.971674  p :     3.076954
      px      :     1.038443
      py      :     1.066837
      dz2     :     0.006893  d :     0.097688
      dxz     :     0.005042
      dyz     :     0.015016
      dx2y2   :     0.037193
      dxy     :     0.033545
  9 H s       :     0.907420  s :     0.907420
      pz      :     0.014107  p :     0.067256
      px      :     0.042590
      py      :     0.010559
 10 C s       :     2.855890  s :     2.855890
      pz      :     0.974005  p :     3.078322
      px      :     1.061815
      py      :     1.042503
      dz2     :     0.007104  d :     0.097567
      dxz     :     0.013218
      dyz     :     0.006469
      dx2y2   :     0.035210
      dxy     :     0.035567
 11 H s       :     0.907829  s :     0.907829
      pz      :     0.013924  p :     0.067292
      px      :     0.015193
      py      :     0.038174
 12 C s       :     2.855869  s :     2.855869
      pz      :     0.974959  p :     3.079298
      px      :     1.056169
      py      :     1.048169
      dz2     :     0.007069  d :     0.097578
      dxz     :     0.011237
      dyz     :     0.008516
      dx2y2   :     0.033591
      dxy     :     0.037166
 13 H s       :     0.907743  s :     0.907743
      pz      :     0.013964  p :     0.067292
      px      :     0.021912
      py      :     0.031416
 14 C s       :     2.856215  s :     2.856215
      pz      :     0.971687  p :     3.076958
      px      :     1.038435
      py      :     1.066836
      dz2     :     0.006893  d :     0.097688
      dxz     :     0.005045
      dyz     :     0.015018
      dx2y2   :     0.037190
      dxy     :     0.033543
 15 H s       :     0.907421  s :     0.907421
      pz      :     0.014110  p :     0.067256
      px      :     0.042587
      py      :     0.010558
 16 C s       :     2.855889  s :     2.855889
      pz      :     0.974022  p :     3.078328
      px      :     1.061804
      py      :     1.042502
      dz2     :     0.007106  d :     0.097568
      dxz     :     0.013219
      dyz     :     0.006472
      dx2y2   :     0.035207
      dxy     :     0.035563
 17 H s       :     0.907830  s :     0.907830
      pz      :     0.013924  p :     0.067291
      px      :     0.015193
      py      :     0.038174
 18 C s       :     2.855911  s :     2.855911
      pz      :     0.959803  p :     3.065166
      px      :     1.055028
      py      :     1.050334
      dz2     :     0.007205  d :     0.097759
      dxz     :     0.011189
      dyz     :     0.008584
      dx2y2   :     0.033786
      dxy     :     0.036996
 19 H s       :     0.907579  s :     0.907579
      pz      :     0.013721  p :     0.067244
      px      :     0.022098
      py      :     0.031426
 20 C s       :     2.855033  s :     2.855033
      pz      :     0.958046  p :     3.064355
      px      :     1.040595
      py      :     1.065713
      dz2     :     0.007068  d :     0.097566
      dxz     :     0.005328
      dyz     :     0.014368
      dx2y2   :     0.036951
      dxy     :     0.033852
 21 H s       :     0.905804  s :     0.905804
      pz      :     0.014132  p :     0.067559
      px      :     0.042935
      py      :     0.010492
 22 C s       :     2.856052  s :     2.856052
      pz      :     0.961896  p :     3.066998
      px      :     1.061010
      py      :     1.044092
      dz2     :     0.007210  d :     0.097747
      dxz     :     0.013199
      dyz     :     0.006559
      dx2y2   :     0.035469
      dxy     :     0.035309
 23 H s       :     0.907800  s :     0.907800
      pz      :     0.013724  p :     0.067218
      px      :     0.015296
      py      :     0.038198


                      *****************************
                      * MAYER POPULATION ANALYSIS *
                      *****************************

  NA   - Mulliken gross atomic population
  ZA   - Total nuclear charge
  QA   - Mulliken gross atomic charge
  VA   - Mayer's total valence
  BVA  - Mayer's bonded valence
  FA   - Mayer's free valence

  ATOM       NA         ZA         QA         VA         BVA        FA
  0 C      6.0240     6.0000    -0.0240     3.8689     3.8689     0.0000
  1 H      0.9611     1.0000     0.0389     0.9881     0.9881     0.0000
  2 C      6.0297     6.0000    -0.0297     3.8829     3.8829    -0.0000
  3 H      0.9579     1.0000     0.0421     0.9901     0.9901     0.0000
  4 C      6.0299     6.0000    -0.0299     3.8699     3.8699    -0.0000
  5 H      0.9614     1.0000     0.0386     0.9872     0.9872    -0.0000
  6 C      6.0540     6.0000    -0.0540     3.8775     3.8775     0.0000
  7 H      0.9604     1.0000     0.0396     0.9852     0.9852     0.0000
  8 C      6.0463     6.0000    -0.0463     3.8719     3.8719    -0.0000
  9 H      0.9596     1.0000     0.0404     0.9849     0.9849     0.0000
 10 C      6.0551     6.0000    -0.0551     3.8789     3.8789     0.0000
 11 H      0.9607     1.0000     0.0393     0.9853     0.9853     0.0000
 12 C      6.0540     6.0000    -0.0540     3.8775     3.8775    -0.0000
 13 H      0.9604     1.0000     0.0396     0.9852     0.9852    -0.0000
 14 C      6.0462     6.0000    -0.0462     3.8719     3.8719    -0.0000
 15 H      0.9596     1.0000     0.0404     0.9849     0.9849     0.0000
 16 C      6.0551     6.0000    -0.0551     3.8789     3.8789    -0.0000
 17 H      0.9607     1.0000     0.0393     0.9853     0.9853     0.0000
 18 C      6.0240     6.0000    -0.0240     3.8689     3.8689    -0.0000
 19 H      0.9611     1.0000     0.0389     0.9881     0.9881    -0.0000
 20 C      6.0297     6.0000    -0.0297     3.8829     3.8829    -0.0000
 21 H      0.9579     1.0000     0.0421     0.9901     0.9901    -0.0000
 22 C      6.0299     6.0000    -0.0299     3.8699     3.8699     0.0000
 23 H      0.9614     1.0000     0.0386     0.9872     0.9872     0.0000

  Mayer bond orders larger than 0.100000
B(  0-C ,  1-H ) :   0.9990 B(  0-C ,  2-C ) :   1.4217 B(  0-C , 10-C ) :   1.4116 
B(  2-C ,  3-H ) :   0.9973 B(  2-C ,  4-C ) :   1.4169 B(  4-C ,  5-H ) :   0.9995 
B(  4-C ,  6-C ) :   1.4145 B(  6-C ,  7-H ) :   0.9995 B(  6-C ,  8-C ) :   1.4138 
B(  8-C ,  9-H ) :   0.9995 B(  8-C , 10-C ) :   1.4166 B( 10-C , 11-H ) :   0.9995 
B( 12-C , 13-H ) :   0.9995 B( 12-C , 14-C ) :   1.4138 B( 12-C , 22-C ) :   1.4145 
B( 14-C , 15-H ) :   0.9995 B( 14-C , 16-C ) :   1.4166 B( 16-C , 17-H ) :   0.9995 
B( 16-C , 18-C ) :   1.4116 B( 18-C , 19-H ) :   0.9990 B( 18-C , 20-C ) :   1.4217 
B( 20-C , 21-H ) :   0.9973 B( 20-C , 22-C ) :   1.4169 B( 22-C , 23-H ) :   0.9995 


-------
TIMINGS
-------

Total SCF time: 0 days 0 hours 0 min 10 sec 

Total time                  ....      10.619 sec
Sum of individual times     ....      10.425 sec  ( 98.2%)

Fock matrix formation       ....      10.124 sec  ( 95.3%)
Diagonalization             ....       0.049 sec  (  0.5%)
Density matrix formation    ....       0.005 sec  (  0.0%)
Population analysis         ....       0.010 sec  (  0.1%)
Initial guess               ....       0.082 sec  (  0.8%)
Orbital Transformation      ....       0.000 sec  (  0.0%)
Orbital Orthonormalization  ....       0.000 sec  (  0.0%)
DIIS solution               ....       0.028 sec  (  0.3%)
SOSCF solution              ....       0.041 sec  (  0.4%)

Maximum memory used throughout the entire SCF-calculation: 230.9 MB
--------------------------------------------------------------------------
WARNING: There was an error initializing an OpenFabrics device.

  Local host:   cnode08
  Local device: mlx5_0
--------------------------------------------------------------------------


           ************************************************************
           *        Program running with 8 parallel MPI-processes     *
           *              working on a common directory               *
           ************************************************************
------------------------------------------------------------------------------
                         ORCA CIS CALCULATION
------------------------------------------------------------------------------

Input orbitals are from        ... /scratch/001_563/001.gbw
CI-vector output               ... /scratch/001_563/001.cis
Tamm-Dancoff approximation     ... operative
CIS-Integral strategy          ... AO-integrals
Integral handling              ... AO integral Direct
Max. core memory used          ... 512 MB
Reference state                ... RHF
Generation of triplets         ... off
Follow IRoot                   ... off
Number of operators            ... 1
Orbital ranges used for CIS calculation:
 Operator 0:  Orbitals  12... 41  to  42...227
XAS localization array:
 Operator 0:  Orbitals  -1... -1

------------------------
DAVIDSON-DIAGONALIZATION
------------------------

Dimension of the eigenvalue problem            ...   5580
Number of roots to be determined               ...     10
Maximum size of the expansion space            ...    100
Maximum number of iterations                   ...    100
Convergence tolerance for the residual         ...    2.500e-07
Convergence tolerance for the energies         ...    2.500e-07
Orthogonality tolerance                        ...    1.000e-14
Level Shift                                    ...    0.000e+00
Constructing the preconditioner                ... o.k.
Building the initial guess                     ... o.k.
Number of trial vectors determined             ...    100


                       ****Iteration    0****

   Memory handling for direct AO based CIS:
   Memory per vector needed      ...     1 MB
   Memory needed                 ...    35 MB
   Memory available              ...   512 MB
   Number of vectors per batch   ...   430
   Number of batches             ...     1
   Time for densities:            0.016
   SHARK[1a]
[cnode08:262056] 7 more processes have sent help message help-mpi-btl-openib.txt / error in device init
[cnode08:262056] Set MCA parameter "orte_base_help_aggregate" to 0 to see all help / error messages
   Time for J+K (Direct):        17.989
   Time for Sigma-Completion:     0.009
   Size of expansion space: 30
   Lowest Energy          :     0.231222627170
   Maximum Energy change  :     0.332907580108 (vector 9)
   Maximum residual norm  :     0.024061177641

                       ****Iteration    1****
   Time for densities:            0.003
   SHARK[1a]
   Time for J+K (Direct):         5.613
   Time for Sigma-Completion:     0.003
   Size of expansion space: 40
   Lowest Energy          :     0.226371006302
   Maximum Energy change  :     0.031580081309 (vector 4)
   Maximum residual norm  :     0.001371538921

                       ****Iteration    2****
   Time for densities:            0.003
   SHARK[1a]
   Time for J+K (Direct):         5.673
   Time for Sigma-Completion:     0.004
   Size of expansion space: 50
   Lowest Energy          :     0.226305428256
   Maximum Energy change  :     0.002037671982 (vector 7)
   Maximum residual norm  :     0.000334256757

                       ****Iteration    3****
   Time for densities:            0.003
   SHARK[1a]
   Time for J+K (Direct):         5.662
   Time for Sigma-Completion:     0.003
   Size of expansion space: 60
   Lowest Energy          :     0.226303244030
   Maximum Energy change  :     0.001303627737 (vector 7)
   Maximum residual norm  :     0.000621907857

                       ****Iteration    4****
   Time for densities:            0.003
   SHARK[1a]
   Time for J+K (Direct):         5.600
   Time for Sigma-Completion:     0.003
   Size of expansion space: 70
   Lowest Energy          :     0.226303064734
   Maximum Energy change  :     0.002754594515 (vector 7)
   Maximum residual norm  :     0.000423779037

                       ****Iteration    5****
   Time for densities:            0.003
   SHARK[1a]
   Time for J+K (Direct):         5.639
   Time for Sigma-Completion:     0.003
   Size of expansion space: 80
   Lowest Energy          :     0.226303051844
   Maximum Energy change  :     0.000810369283 (vector 7)
   Maximum residual norm  :     0.000053084638

                       ****Iteration    6****
   Time for densities:            0.003
   SHARK[1a]
   Time for J+K (Direct):         5.638
   Time for Sigma-Completion:     0.003
   Size of expansion space: 90
   Lowest Energy          :     0.226303050792
   Maximum Energy change  :     0.000120430713 (vector 6)
   Maximum residual norm  :     0.000008159142

                       ****Iteration    7****
   Time for densities:            0.003
   SHARK[1a]
   Time for J+K (Direct):         5.625
   Time for Sigma-Completion:     0.003
   Size of expansion space: 100
   Lowest Energy          :     0.226303050644
   Maximum Energy change  :     0.000012876199 (vector 6)
   Maximum residual norm  :     0.000000942987
   Rebuilding the expansion space

                       ****Iteration    8****
   Time for densities:            0.006
   SHARK[1a]
   Time for J+K (Direct):        11.449
   Time for Sigma-Completion:     0.006
   Size of expansion space: 20
   Lowest Energy          :     0.226303050633
   Maximum Energy change  :     0.000002250727 (vector 6)
   Maximum residual norm  :     0.000000484718

                       ****Iteration    9****
   Time for densities:            0.003
   SHARK[1a]
   Time for J+K (Direct):         5.622
   Time for Sigma-Completion:     0.003
   Size of expansion space: 30
   Lowest Energy          :     0.226303050632
   Maximum Energy change  :     0.000001076170 (vector 6)
   Maximum residual norm  :     0.000000125849

      *** CONVERGENCE OF RESIDUAL NORM REACHED ***

Storing the converged CI vectors               ... /scratch/001_563/001.cis1

                 *** DAVIDSON DONE ***

Total time for solving the CIS problem:    74.873sec

-----------------------------
CIS-EXCITED STATES (SINGLETS)
-----------------------------

the weight of the individual excitations are printed if larger than 1.0e-02

STATE  1:  E=   0.226303 au      6.158 eV    49667.8 cm**-1 <S**2> =   0.000000
    38a ->  45a  :     0.165768 (c= -0.40714628)
    39a ->  43a  :     0.233466 (c= -0.48318358)
    40a ->  44a  :     0.235620 (c=  0.48540734)
    41a ->  42a  :     0.335442 (c= -0.57917317)

STATE  2:  E=   0.227247 au      6.184 eV    49874.9 cm**-1 <S**2> =   0.000000
    38a ->  42a  :     0.203979 (c=  0.45164082)
    39a ->  42a  :     0.010636 (c=  0.10313051)
    39a ->  44a  :     0.226586 (c= -0.47601079)
    40a ->  43a  :     0.244656 (c=  0.49462726)
    41a ->  45a  :     0.282484 (c=  0.53149251)

STATE  3:  E=   0.232669 au      6.331 eV    51064.9 cm**-1 <S**2> =   0.000000
    38a ->  44a  :     0.174125 (c= -0.41728330)
    39a ->  42a  :     0.240611 (c= -0.49052137)
    40a ->  45a  :     0.203132 (c= -0.45070202)
    41a ->  43a  :     0.307614 (c=  0.55462930)

STATE  4:  E=   0.233242 au      6.347 eV    51190.6 cm**-1 <S**2> =   0.000000
    38a ->  43a  :     0.172822 (c= -0.41571901)
    39a ->  45a  :     0.206624 (c=  0.45455919)
    40a ->  42a  :     0.274516 (c=  0.52394234)
    41a ->  44a  :     0.283050 (c=  0.53202468)

STATE  5:  E=   0.288541 au      7.852 eV    63327.4 cm**-1 <S**2> =   0.000000
    38a ->  45a  :     0.070918 (c=  0.26630380)
    39a ->  43a  :     0.246613 (c= -0.49660157)
    40a ->  44a  :     0.225298 (c=  0.47465587)
    41a ->  42a  :     0.390369 (c=  0.62479546)

STATE  6:  E=   0.293442 au      7.985 eV    64403.0 cm**-1 <S**2> =   0.000000
    38a ->  43a  :     0.092813 (c=  0.30465269)
    39a ->  45a  :     0.123053 (c=  0.35078979)
    40a ->  42a  :     0.323559 (c=  0.56882282)
    41a ->  44a  :     0.391129 (c= -0.62540303)

STATE  7:  E=   0.309838 au      8.431 eV    68001.7 cm**-1 <S**2> =   0.000000
    38a ->  44a  :     0.040743 (c=  0.20184899)
    39a ->  42a  :     0.345694 (c= -0.58795733)
    40a ->  45a  :     0.110930 (c= -0.33306161)
    41a ->  43a  :     0.409541 (c= -0.63995388)

STATE  8:  E=   0.310016 au      8.436 eV    68040.7 cm**-1 <S**2> =   0.000000
    37a ->  48a  :     0.022451 (c= -0.14983615)
    38a ->  47a  :     0.195891 (c= -0.44259591)
    41a ->  46a  :     0.712600 (c= -0.84415627)

STATE  9:  E=   0.315500 au      8.585 eV    69244.2 cm**-1 <S**2> =   0.000000
    32a ->  50a  :     0.011049 (c=  0.10511187)
    37a ->  49a  :     0.018051 (c=  0.13435345)
    39a ->  47a  :     0.301382 (c=  0.54898260)
    39a ->  49a  :     0.013195 (c= -0.11487075)
    40a ->  46a  :     0.594949 (c=  0.77132906)

STATE 10:  E=   0.316208 au      8.604 eV    69399.7 cm**-1 <S**2> =   0.000000
    32a ->  49a  :     0.015462 (c=  0.12434477)
    37a ->  50a  :     0.015035 (c=  0.12261544)
    39a ->  46a  :     0.561158 (c= -0.74910496)
    40a ->  47a  :     0.328225 (c= -0.57290946)


----------------------
CIS-EXCITATION SPECTRA
----------------------

Center of mass = ( -0.0000, -0.0000,  0.0000)
Calculating the Dipole integrals                  ... done
Transforming integrals                            ... done
Calculating the Linear Momentum integrals         ... done
Transforming integrals                            ... done
Calculating angular momentum integrals            ... done
Transforming integrals                            ... done

-----------------------------------------------------------------------------
         ABSORPTION SPECTRUM VIA TRANSITION ELECTRIC DIPOLE MOMENTS
-----------------------------------------------------------------------------
State   Energy    Wavelength  fosc         T2        TX        TY        TZ  
        (cm-1)      (nm)                 (au**2)    (au)      (au)      (au) 
-----------------------------------------------------------------------------
   1   49667.8    201.3   0.000000000   0.00000   0.00001   0.00001   0.00000
   2   49874.9    200.5   0.000048003   0.00032  -0.00368  -0.01468  -0.00937
   3   51064.9    195.8   0.001198293   0.00773   0.06299  -0.02234   0.05708
   4   51190.6    195.3   0.000000001   0.00000   0.00006  -0.00004   0.00002
   5   63327.4    157.9   0.000000007   0.00000   0.00004  -0.00010   0.00015
   6   64403.0    155.3   0.000000229   0.00000   0.00023   0.00002  -0.00106
   7   68001.7    147.1   1.811484262   8.76982  -2.90332   0.15013  -0.56394
   8   68040.7    147.0   0.000006833   0.00003  -0.00564  -0.00023  -0.00110
   9   69244.2    144.4   0.000000007   0.00000  -0.00010  -0.00015   0.00000
  10   69399.7    144.1   0.055702911   0.26424   0.45167  -0.23840   0.05829

-----------------------------------------------------------------------------
         ABSORPTION SPECTRUM VIA TRANSITION VELOCITY DIPOLE MOMENTS
-----------------------------------------------------------------------------
State   Energy    Wavelength   fosc        P2         PX        PY        PZ  
        (cm-1)      (nm)                 (au**2)     (au)      (au)      (au) 
-----------------------------------------------------------------------------
   1   49667.8    201.3   0.000000000   0.00000   0.00000   0.00000   0.00000
   2   49874.9    200.5   0.000018304   0.00001   0.00093   0.00184   0.00141
   3   51064.9    195.8   0.000398332   0.00014  -0.00618   0.00078  -0.01001
   4   51190.6    195.3   0.000000000   0.00000  -0.00001   0.00000  -0.00000
   5   63327.4    157.9   0.000000002   0.00000  -0.00001  -0.00000  -0.00003
   6   64403.0    155.3   0.000000071   0.00000   0.00004  -0.00000   0.00017
   7   68001.7    147.1   0.102286504   0.04754   0.17980  -0.00723   0.12312
   8   68040.7    147.0   0.000000388   0.00000   0.00035   0.00002   0.00024
   9   69244.2    144.4   0.000000001   0.00000  -0.00000   0.00001  -0.00001
  10   69399.7    144.1   0.001673600   0.00079  -0.02211   0.01283  -0.01185

-------------------------------------------------------------------
                             CD SPECTRUM
-------------------------------------------------------------------
State  Energy     Wavelength     R         MX        MY        MZ   
       (cm-1)       (nm)     (1e40*cgs)   (au)      (au)      (au)  
-------------------------------------------------------------------
   1   49667.8    201.3      0.00005   0.01399  -0.00694  -0.01998
   2   49874.9    200.5     -0.00008  -0.00002   0.00001   0.00001
   3   51064.9    195.8     -0.00006  -0.00002  -0.00002   0.00001
   4   51190.6    195.3      0.00014  -0.00529  -0.01955  -0.00400
   5   63327.4    157.9     -0.00131  -0.96127   0.07191   0.27775
   6   64403.0    155.3     -0.02570  -0.07327  -0.94089   0.01776
   7   68001.7    147.1      0.77822  -0.00055   0.00011  -0.00008
   8   68040.7    147.0     -0.76868   0.28055  -0.00869   0.04583
   9   69244.2    144.4     -0.02446   0.00605   0.34189  -0.00122
  10   69399.7    144.1     -0.02801   0.00001   0.00027  -0.00000

-------------------------------------------------------------------
         CD SPECTRUM VIA TRANSITION VELOCITY DIPOLE MOMENTS        
-------------------------------------------------------------------
State  Energy     Wavelength     R         MX        MY        MZ   
       (cm-1)       (nm)     (1e40*cgs)   (au)      (au)      (au)  
-------------------------------------------------------------------
   1   49667.8    201.3      0.00002   0.01399  -0.00694  -0.01998
   2   49874.9    200.5      0.00003  -0.00002   0.00001   0.00001
   3   51064.9    195.8      0.00002  -0.00002  -0.00002   0.00001
   4   51190.6    195.3     -0.00003  -0.00529  -0.01955  -0.00400
   5   63327.4    157.9     -0.00055  -0.96127   0.07191   0.27775
   6   64403.0    155.3      0.00394  -0.07327  -0.94089   0.01776
   7   68001.7    147.1     -0.16582  -0.00055   0.00011  -0.00008
   8   68040.7    147.0      0.16576   0.28055  -0.00869   0.04583
   9   69244.2    144.4      0.00428   0.00605   0.34189  -0.00122
  10   69399.7    144.1      0.00482   0.00001   0.00027  -0.00000

Total run time:       75.053 sec

           *** ORCA-CIS/TD-DFT FINISHED WITHOUT ERROR ***

Maximum memory used throughout the entire CIS-calculation: 50.9 MB

-----------------------
CIS/TD-DFT TOTAL ENERGY
-----------------------

    E(SCF)  =   -461.064333940 Eh
    DE(CIS) =      0.226303051 Eh (Root  1)
    ----------------------------- ---------
    E(tot)  =   -460.838030890 Eh


-------------------------   --------------------
FINAL SINGLE POINT ENERGY      -460.838030889692
-------------------------   --------------------


                            ***************************************
                            *     ORCA property calculations      *
                            ***************************************

                                    ---------------------
                                    Active property flags
                                    ---------------------
   (+) Dipole Moment


------------------------------------------------------------------------------
                       ORCA ELECTRIC PROPERTIES CALCULATION
------------------------------------------------------------------------------

Dipole Moment Calculation                       ... on
Quadrupole Moment Calculation                   ... off
Polarizability Calculation                      ... off
GBWName                                         ... /scratch/001_563/001.gbw
Electron density file                           ... /scratch/001_563/001.scfp
The origin for moment calculation is the CENTER OF MASS  = (-0.000001, -0.000000  0.000002)

-------------
DIPOLE MOMENT
-------------
                                X             Y             Z
Electronic contribution:      0.00001      -0.00000      -0.00009
Nuclear contribution   :      0.00001       0.00000      -0.00003
                        -----------------------------------------
Total Dipole Moment    :      0.00002       0.00000      -0.00013
                        -----------------------------------------
Magnitude (a.u.)       :      0.00013
Magnitude (Debye)      :      0.00032



--------------------
Rotational spectrum 
--------------------
 
Rotational constants in cm-1:     0.053934     0.022933     0.021647 
Rotational constants in MHz :  1616.887126   687.513065   648.953335 

 Dipole components along the rotational axes: 
x,y,z [a.u.] :    -0.000102    -0.000003     0.000076 
x,y,z [Debye]:    -0.000260    -0.000006     0.000193 

 
--------------------------------------------------------------------------
WARNING: There was an error initializing an OpenFabrics device.

  Local host:   cnode08
  Local device: mlx5_0
--------------------------------------------------------------------------
[cnode08:262282] 7 more processes have sent help message help-mpi-btl-openib.txt / error in device init
[cnode08:262282] Set MCA parameter "orte_base_help_aggregate" to 0 to see all help / error messages

Timings for individual modules:

Sum of individual times         ...       86.895 sec (=   1.448 min)
GTO integral calculation        ...        0.488 sec (=   0.008 min)   0.6 %
SCF iterations                  ...       10.987 sec (=   0.183 min)  12.6 %
CIS module                      ...       75.420 sec (=   1.257 min)  86.8 %
                             ****ORCA TERMINATED NORMALLY****
TOTAL RUN TIME: 0 days 0 hours 1 minutes 27 seconds 361 msec

Sender: Unischeduler System <wangru@mgt01>
Subject: Job 141637: <#!/bin/bash
#BSUB -J intel
#BSUB -o 001.out
#BSUB -n 8
#BSUB -q cqueue
export LD_LIBRARY_PATH=/apps/software/openmpi-4.1.1/lib:/apps/software/orca_5_0_0:$LD_LIBRARY_PATH
export PATH=/apps/software/openmpi-4.1.1/bin:/apps/software/orca_5_0_0:$PATH
mkdir /scratch/001_563
scp $USER@mgt01:/apps/users/wangru/QM/homework/exam/1-task/orca/1-CIS/001.inp /scratch/001_563
scp $USER@mgt01:/apps/users/wangru/QM/homework/exam/1-task/orca/1-CIS/opt.xyz /scratch/001_563
/apps/software/orca_5_0_0/orca /scratch/001_563/001.inp >& 001.out
scp /scratch/001_563/*.gbw $USER@mgt01:/apps/users/wangru/QM/homework/exam/1-task/orca/1-CIS
scp /scratch/001_563/*.xyz $USER@mgt01:/apps/users/wangru/QM/homework/exam/1-task/orca/1-CIS
scp /scratch/001_563/*.trj $USER@mgt01:/apps/users/wangru/QM/homework/exam/1-task/orca/1-CIS> Exited

Job <#!/bin/bash
#BSUB -J intel
#BSUB -o 001.out
#BSUB -n 8
#BSUB -q cqueue
export LD_LIBRARY_PATH=/apps/software/openmpi-4.1.1/lib:/apps/software/orca_5_0_0:$LD_LIBRARY_PATH
export PATH=/apps/software/openmpi-4.1.1/bin:/apps/software/orca_5_0_0:$PATH
mkdir /scratch/001_563
scp $USER@mgt01:/apps/users/wangru/QM/homework/exam/1-task/orca/1-CIS/001.inp /scratch/001_563
scp $USER@mgt01:/apps/users/wangru/QM/homework/exam/1-task/orca/1-CIS/opt.xyz /scratch/001_563
/apps/software/orca_5_0_0/orca /scratch/001_563/001.inp >& 001.out
scp /scratch/001_563/*.gbw $USER@mgt01:/apps/users/wangru/QM/homework/exam/1-task/orca/1-CIS
scp /scratch/001_563/*.xyz $USER@mgt01:/apps/users/wangru/QM/homework/exam/1-task/orca/1-CIS
scp /scratch/001_563/*.trj $USER@mgt01:/apps/users/wangru/QM/homework/exam/1-task/orca/1-CIS> was submitted from host <mgt01> by user <wangru>.
Job was executed on host(s) <8*cnode08>, in queue <cqueue>, as user <wangru>.
</apps/users/wangru> was used as the home directory.
</apps/users/wangru/QM/homework/exam/1-task/orca/1-CIS> was used as the working directory.
Started at 2022-06-16 10:19:24
Results reported at 2022-06-16 10:20:56

Your job looked like:

------------------------------------------------------------
# User input
#!/bin/bash
#BSUB -J intel
#BSUB -o 001.out
#BSUB -n 8
#BSUB -q cqueue
export LD_LIBRARY_PATH=/apps/software/openmpi-4.1.1/lib:/apps/software/orca_5_0_0:$LD_LIBRARY_PATH
export PATH=/apps/software/openmpi-4.1.1/bin:/apps/software/orca_5_0_0:$PATH
mkdir /scratch/001_563
scp $USER@mgt01:/apps/users/wangru/QM/homework/exam/1-task/orca/1-CIS/001.inp /scratch/001_563
scp $USER@mgt01:/apps/users/wangru/QM/homework/exam/1-task/orca/1-CIS/opt.xyz /scratch/001_563
/apps/software/orca_5_0_0/orca /scratch/001_563/001.inp >& 001.out
scp /scratch/001_563/*.gbw $USER@mgt01:/apps/users/wangru/QM/homework/exam/1-task/orca/1-CIS
scp /scratch/001_563/*.xyz $USER@mgt01:/apps/users/wangru/QM/homework/exam/1-task/orca/1-CIS
scp /scratch/001_563/*.trj $USER@mgt01:/apps/users/wangru/QM/homework/exam/1-task/orca/1-CIS
------------------------------------------------------------

Exited with exit code 1.

Resource usage summary:

    CPU time   :          691.75 sec.
    Max Memory :              1066 MB
    Max Processes  :              13


The output (if any) follows:

/scratch/001_563/*.trj: No such file or directory
